 Gaussian 16, Revision B.01,
 Gaussian 16:  EM64M-G16RevB.01 20-Dec-2017

 -------------------------
 # opt freq b3lyp/6-31g(d)
 -------------------------

 ---------------
 claisen_ts_QRCF
 ---------------
 Symbolic Z-matrix:
 Charge =  0 Multiplicity = 1

 SCF Done:  E(RB3LYP) =  -270.471998789     A.U. after   15 cycles
 SCF Done:  E(RB3LYP) =  -270.482121883     A.U. after   14 cycles
 SCF Done:  E(RB3LYP) =  -270.496850966     A.U. after   15 cycles
 SCF Done:  E(RB3LYP) =  -270.511419863     A.U. after   15 cycles
 SCF Done:  E(RB3LYP) =  -270.522433522     A.U. after   14 cycles
 SCF Done:  E(RB3LYP) =  -270.525713499     A.U. after   13 cycles
 SCF Done:  E(RB3LYP) =  -270.527643498     A.U. after   13 cycles
 SCF Done:  E(RB3LYP) =  -270.529169324     A.U. after   13 cycles
 SCF Done:  E(RB3LYP) =  -270.529878696     A.U. after   11 cycles
 SCF Done:  E(RB3LYP) =  -270.530262799     A.U. after   12 cycles
 SCF Done:  E(RB3LYP) =  -270.533340304     A.U. after   10 cycles
 SCF Done:  E(RB3LYP) =  -270.533349546     A.U. after   10 cycles
 SCF Done:  E(RB3LYP) =  -270.533355162     A.U. after    8 cycles
 SCF Done:  E(RB3LYP) =  -270.533366723     A.U. after   10 cycles
 SCF Done:  E(RB3LYP) =  -270.533385962     A.U. after   10 cycles
 SCF Done:  E(RB3LYP) =  -270.533414753     A.U. after   11 cycles
 SCF Done:  E(RB3LYP) =  -270.533425156     A.U. after   10 cycles
 SCF Done:  E(RB3LYP) =  -270.533430360     A.U. after   10 cycles
 SCF Done:  E(RB3LYP) =  -270.533431165     A.U. after    9 cycles
 Optimization completed.
    -- Stationary point found.
 Normal termination of Gaussian 16 at Mon May  7 11:45:38 2018.

 --------------------------------------------------------------------
 #N Geom=AllCheck Guess=TCheck SCRF=Check GenChk RB3LYP/6-31G(d) Freq
 --------------------------------------------------------------------

 Structure from the checkpoint file:  "claisen_ts_QRCF.chk"
 ---------------
 claisen_ts_QRCF
 ---------------
 Charge =  0 Multiplicity = 1

                         Standard orientation:
 ---------------------------------------------------------------------
 Center     Atomic      Atomic             Coordinates (Angstroms)
 Number     Number       Type             X           Y           Z
 ---------------------------------------------------------------------
      1          6           0       -0.812957    0.985541   -0.142085
      2          6           0       -1.470879   -0.271486    0.388199
      3          8           0       -2.228421   -0.974247   -0.241667
      4          6           0        2.243434   -0.922952    0.165334
      5          6           0        1.500646   -0.014693   -0.468024
      6          6           0        0.690381    1.062454    0.203620
      7          1           0       -1.329591    1.841919    0.318582
      8          1           0       -0.986866    1.037966   -1.222222
      9          1           0       -1.218615   -0.514452    1.447217
     10          1           0        2.804967   -1.680260   -0.374721
     11          1           0        2.321822   -0.942963    1.250751
     12          1           0        1.449199   -0.035851   -1.557925
     13          1           0        1.059033    2.051301   -0.102629
     14          1           0        0.823674    1.003133    1.292022
 ---------------------------------------------------------------------

 SCF Done:  E(RB3LYP) =  -270.533431165     A.U. after    1 cycles

 The electronic state is 1-A.
 Alpha  occ. eigenvalues --  -19.14798 -10.27668 -10.20505 -10.20175 -10.19679
 Alpha  occ. eigenvalues --  -10.18583  -1.04365  -0.81648  -0.75171  -0.66289
 Alpha  occ. eigenvalues --   -0.57860  -0.56420  -0.48118  -0.46537  -0.44843
 Alpha  occ. eigenvalues --   -0.43895  -0.41409  -0.39166  -0.37055  -0.36089
 Alpha  occ. eigenvalues --   -0.34334  -0.26585  -0.24839
 Alpha virt. eigenvalues --   -0.02131   0.01314   0.10060   0.10658   0.12645
 Alpha virt. eigenvalues --    0.14678   0.15482   0.16767   0.16812   0.18654
 Alpha virt. eigenvalues --    0.22149   0.26833   0.27326   0.31310   0.36743

 Mulliken charges:
               1
     1  C   -0.339231
     2  C    0.271122
     3  O   -0.383559
     4  C   -0.336942
     5  C   -0.040812
     6  C   -0.320774
     7  H    0.164015
     8  H    0.167396
     9  H    0.097484
    10  H    0.146121
    11  H    0.137866
    12  H    0.133458
    13  H    0.157720
    14  H    0.146136
 Sum of Mulliken charges =  -0.00000

 Dipole moment (field-independent basis, Debye):
    X=              1.7064    Y=              1.9504    Z=              0.8636  Tot=              2.7316
 Quadrupole moment (field-independent basis, Debye-Ang):
   XX=            -42.4842   YY=            -37.0019   ZZ=            -34.6987
   XY=             -5.0753   XZ=             -1.9728   YZ=             -0.6227

  Exact polarizability:  54.906  -7.240  54.093   5.244  -2.065  50.729
 Approx polarizability:  71.610  -8.485  79.458  13.132  -3.161  76.356

                      1                      2                      3
                      A                      A                      A
 Frequencies --     60.6764                92.7215               113.8209
 Red. masses --      5.4232                 2.4066                 1.9383
 Frc consts  --      0.0118                 0.0122                 0.0148
 IR Inten    --      3.9200                 2.1361                 2.1193

                      4                      5                      6
                      A                      A                      A
 Frequencies --    266.3739               353.3240               428.1027
 Red. masses --      2.2184                 1.8913                 2.1181
 Frc consts  --      0.0927                 0.1391                 0.2287
 IR Inten    --      1.7332                 3.3922                 1.6747

                      7                      8                      9
                      A                      A                      A
 Frequencies --    503.2519               660.2919               753.6682
 Red. masses --      2.8065                 1.5605                 1.6165
 Frc consts  --      0.4188                 0.4009                 0.5410
 IR Inten    --      4.5035                13.4153                 1.9971

                     10                     11                     12
                      A                      A                      A
 Frequencies --    872.3761               902.0821               947.4900
 Red. masses --      1.6664                 1.8350                 1.3552
 Frc consts  --      0.7472                 0.8798                 0.7168
 IR Inten    --      8.5647                 1.8959                36.6763

                     13                     14                     15
                      A                      A                      A
 Frequencies --   1006.5119              1030.7751              1036.0663
 Red. masses --      1.3803                 2.1786                 1.2098
 Frc consts  --      0.8239                 1.3638                 0.7651
 IR Inten    --      4.5064                 8.2582                 4.4335

                     16                     17                     18
                      A                      A                      A
 Frequencies --   1066.9163              1169.1702              1239.6372
 Red. masses --      2.1082                 2.0111                 1.3236
 Frc consts  --      1.4139                 1.6197                 1.1984
 IR Inten    --     14.5195                 7.7129                 6.5031

                     19                     20                     21
                      A                      A                      A
 Frequencies --   1247.0830              1335.5061              1359.3519
 Red. masses --      1.3493                 1.2325                 1.3701
 Frc consts  --      1.2364                 1.2952                 1.4916
 IR Inten    --      0.3933                 1.6845                 0.1972

                     22                     23                     24
                      A                      A                      A
 Frequencies --   1371.5881              1441.1033              1476.1214
 Red. masses --      1.3580                 1.2082                 1.1798
 Frc consts  --      1.5052                 1.4783                 1.5146
 IR Inten    --      3.2738                 4.0729                 4.1667

                     25                     26                     27
                      A                      A                      A
 Frequencies --   1487.6074              1512.4554              1733.3358
 Red. masses --      1.0914                 1.1107                 4.4636
 Frc consts  --      1.4230                 1.4970                 7.9014
 IR Inten    --      5.3912                 5.2271                 5.5150

                     28                     29                     30
                      A                      A                      A
 Frequencies --   1838.8994              2884.2542              3023.0401
 Red. masses --      9.9587                 1.0831                 1.0658
 Frc consts  --     19.8412                 5.3089                 5.7386
 IR Inten    --    162.5288               108.1341                15.1796

                     31                     32                     33
                      A                      A                      A
 Frequencies --   3035.7340              3070.4632              3108.4429
 Red. masses --      1.0619                 1.1022                 1.0952
 Frc consts  --      5.7657                 6.1226                 6.2347
 IR Inten    --     30.8905                15.0028                16.9866

                     34                     35                     36
                      A                      A                      A
 Frequencies --   3143.3152              3157.8215              3237.7194
 Red. masses --      1.0822                 1.0683                 1.1154
 Frc consts  --      6.2997                 6.2763                 6.8888
 IR Inten    --     23.2114                 4.4210                17.8252

 - Thermochemistry -
 -------------------
 Temperature   298.150 Kelvin.  Pressure   1.00000 Atm.
 Atom     1 has atomic number  6 and mass  12.00000

 Molecular mass:    84.05751 amu.
 Principal axes and moments of inertia in atomic units:
                           1         2         3
     Eigenvalues --   288.92702 871.288481046.02157
           X            0.99918  -0.04041  -0.00122
           Y            0.04038   0.99906  -0.01596
           Z            0.00187   0.01590   0.99987
 This molecule is an asymmetric top.
 Rotational symmetry number  1.
 Rotational temperatures (Kelvin)      0.29978     0.09941     0.08280
 Rotational constants (GHZ):           6.24636     2.07135     1.72534
 Zero-point vibrational energy     310832.3 (Joules/Mol)
                                   74.29070 (Kcal/Mol)
 Warning -- explicit consideration of   7 degrees of freedom as
           vibrations may cause significant error
 Vibrational temperatures:     87.30   133.41   163.76   383.25   508.35
          (Kelvin)            615.94   724.07   950.01  1084.36  1255.15
                             1297.89  1363.23  1448.15  1483.06  1490.67
                             1535.05  1682.18  1783.56  1794.27  1921.50
                             1955.80  1973.41  2073.43  2123.81  2140.34
                             2176.09  2493.88  2645.77  4149.80  4349.48
                             4367.74  4417.71  4472.36  4522.53  4543.40
                             4658.36

 Zero-point correction=                           0.118390 (Hartree/Particle)
 Thermal correction to Energy=                    0.125427
 Thermal correction to Enthalpy=                  0.126371
 Thermal correction to Gibbs Free Energy=         0.086757
 Sum of electronic and zero-point Energies=           -270.415041
 Sum of electronic and thermal Energies=              -270.408004
 Sum of electronic and thermal Enthalpies=            -270.407060
 Sum of electronic and thermal Free Energies=         -270.446674

                     E (Thermal)             CV                S
                      KCal/Mol        Cal/Mol-Kelvin    Cal/Mol-Kelvin
 Total                   78.707             23.588             83.375
 Electronic               0.000              0.000              0.000
 Translational            0.889              2.981             39.200
 Rotational               0.889              2.981             27.068
 Vibrational             76.929             17.627             17.107
 Vibration     1          0.597              1.973              4.435
 Vibration     2          0.602              1.954              3.602
 Vibration     3          0.607              1.938              3.203
 Vibration     4          0.672              1.735              1.620
 Vibration     5          0.730              1.568              1.151
 Vibration     6          0.790              1.409              0.865
 Vibration     7          0.859              1.243              0.650

 Optimization completed.
    -- Stationary point found.
 Normal termination of Gaussian 16 at Mon May  7 11:46:36 2018.
