 Gaussian 16, Revision B.01,
 Gaussian 16:  EM64M-G16RevB.01 20-Dec-2017

 ----------------------------------
 # symm=loose opt b3lyp/6-31G* freq
 ----------------------------------

 -------------------
 Title Card Required
 -------------------
 Symbolic Z-matrix:
 Charge =  0 Multiplicity = 1

 SCF Done:  E(RB3LYP) =  -235.721447673     A.U. after    9 cycles
 SCF Done:  E(RB3LYP) =  -235.799497369     A.U. after    9 cycles
 SCF Done:  E(RB3LYP) =  -235.837671753     A.U. after   10 cycles
 SCF Done:  E(RB3LYP) =  -235.839111996     A.U. after    9 cycles
 SCF Done:  E(RB3LYP) =  -235.839174909     A.U. after    6 cycles
 SCF Done:  E(RB3LYP) =  -235.839183708     A.U. after    6 cycles
 Optimization completed.
    -- Stationary point found.
 Normal termination of Gaussian 16 at Wed May 19 15:24:04 2021.

 --------------------------------------------------------------------
 #N Geom=AllCheck Guess=TCheck SCRF=Check GenChk RB3LYP/6-31G(d) Freq
 --------------------------------------------------------------------

 Structure from the checkpoint file:  "planar_chex.chk"
 -------------------
 Title Card Required
 -------------------
 Charge =  0 Multiplicity = 1

                         Standard orientation:
 ---------------------------------------------------------------------
 Center     Atomic      Atomic             Coordinates (Angstroms)
 Number     Number       Type             X           Y           Z
 ---------------------------------------------------------------------
      1          6           0        0.167858    1.546289    0.000560
      2          6           0        1.423125    0.627751    0.001731
      3          6           0        1.255232   -0.918516   -0.000433
      4          6           0       -0.167879   -1.546289   -0.000526
      5          6           0       -1.423119   -0.627769   -0.000390
      6          6           0       -1.255217    0.918533   -0.000943
      7          1           0        0.239066    2.210432    0.868748
      8          1           0        2.035865    0.898448   -0.864977
      9          1           0        1.794063   -1.311908   -0.869231
     10          1           0       -0.239877   -2.210395   -0.868675
     11          1           0       -2.034652   -0.897697   -0.868191
     12          1           0       -1.795467    1.313415    0.866295
     13          1           0       -1.793414    1.312704   -0.869780
     14          1           0       -2.034238   -0.897251    0.867842
     15          1           0        0.240772    2.210675   -0.867301
     16          1           0        2.033012    0.896520    0.871051
     17          1           0        1.794808   -1.314225    0.866845
     18          1           0       -0.239938   -2.210714    0.867376
 ---------------------------------------------------------------------

 SCF Done:  E(RB3LYP) =  -235.839183708     A.U. after    1 cycles

 The electronic state is 1-A.
 Alpha  occ. eigenvalues --  -10.17281 -10.17274 -10.17274 -10.17255 -10.17255
 Alpha  occ. eigenvalues --  -10.17247  -0.79985  -0.73028  -0.73027  -0.60698
 Alpha  occ. eigenvalues --   -0.60697  -0.49931  -0.47268  -0.44979  -0.42411
 Alpha  occ. eigenvalues --   -0.42410  -0.38421  -0.35023  -0.35021  -0.32937
 Alpha  occ. eigenvalues --   -0.32937  -0.29600  -0.29599  -0.27440
 Alpha virt. eigenvalues --    0.07168   0.08187   0.12101   0.12101   0.14711
 Alpha virt. eigenvalues --    0.14711   0.15966   0.15967   0.23087   0.23139
 Alpha virt. eigenvalues --    0.23140   0.23552   0.23553   0.24624   0.24625

 Mulliken charges:
               1
     1  C   -0.269449
     2  C   -0.269451
     3  C   -0.269457
     4  C   -0.269450
     5  C   -0.269451
     6  C   -0.269457
     7  H    0.134729
     8  H    0.134733
     9  H    0.134719
    10  H    0.134730
    11  H    0.134727
    12  H    0.134729
    13  H    0.134725
    14  H    0.134724
    15  H    0.134724
    16  H    0.134718
    17  H    0.134734
    18  H    0.134723
 Sum of Mulliken charges =  -0.00000

 Dipole moment (field-independent basis, Debye):
    X=             -0.0000    Y=              0.0000    Z=              0.0000  Tot=              0.0000
 Quadrupole moment (field-independent basis, Debye-Ang):
   XX=            -39.9319   YY=            -39.9324   ZZ=            -38.6828
   XY=             -0.0001   XZ=             -0.0007   YZ=             -0.0004

  Exact polarizability:  62.046   0.000  62.043   0.004   0.003  54.140
 Approx polarizability:  76.921   0.000  76.918  -0.002  -0.001  79.876

 ******    3 imaginary frequencies (negative Signs) ******

                      1                      2                      3
                      A                      A                      A
 Frequencies --   -347.7647              -243.5383              -243.1500
 Red. masses --      1.4852                 1.6265                 1.6267
 Frc consts  --      0.1058                 0.0568                 0.0567
 IR Inten    --      0.0000                 0.0000                 0.0000

                      4                      5                      6
                      A                      A                      A
 Frequencies --    480.4020               480.5318               718.5307
 Red. masses --      5.5814                 5.5813                 1.0543
 Frc consts  --      0.7589                 0.7593                 0.3207
 IR Inten    --      0.0000                 0.0000                 5.7990

                      7                      8                      9
                      A                      A                      A
 Frequencies --    737.5801               749.0044               749.4799
 Red. masses --      4.9110                 1.1642                 1.1642
 Frc consts  --      1.5741                 0.3848                 0.3853
 IR Inten    --      0.0000                 0.0000                 0.0000

                     10                     11                     12
                      A                      A                      A
 Frequencies --    852.6468               870.5836               871.1743
 Red. masses --      5.3095                 3.0557                 3.0523
 Frc consts  --      2.2743                 1.3645                 1.3649
 IR Inten    --      0.0000                 0.8407                 0.8411

                     13                     14                     15
                      A                      A                      A
 Frequencies --    957.5711               957.7726              1130.8020
 Red. masses --      1.4925                 1.4925                 3.1130
 Frc consts  --      0.8063                 0.8067                 2.3453
 IR Inten    --      0.0000                 0.0000                 0.0000

                     16                     17                     18
                      A                      A                      A
 Frequencies --   1131.1730              1132.4624              1143.7208
 Red. masses --      3.1088                 2.0383                11.9396
 Frc consts  --      2.3437                 1.5401                 9.2020
 IR Inten    --      0.0000                 0.0001                 0.0000

                     19                     20                     21
                      A                      A                      A
 Frequencies --   1260.9902              1320.8683              1323.3735
 Red. masses --      1.0078                 1.0080                 1.1482
 Frc consts  --      0.9442                 1.0361                 1.1847
 IR Inten    --      0.0000                 0.0000                 0.0000

                     22                     23                     24
                      A                      A                      A
 Frequencies --   1323.5168              1337.0381              1337.1379
 Red. masses --      1.1479                 1.0731                 1.0731
 Frc consts  --      1.1847                 1.1302                 1.1304
 IR Inten    --      0.0000                 0.0000                 0.0000

                     25                     26                     27
                      A                      A                      A
 Frequencies --   1343.6147              1379.1413              1395.3979
 Red. masses --      1.0084                 1.3159                 1.3041
 Frc consts  --      1.0725                 1.4746                 1.4961
 IR Inten    --      0.0000                 0.0000                 0.0000

                     28                     29                     30
                      A                      A                      A
 Frequencies --   1395.5746              1420.3225              1420.4127
 Red. masses --      1.3046                 1.3610                 1.3614
 Frc consts  --      1.4971                 1.6176                 1.6183
 IR Inten    --      0.0000                 5.3513                 5.3524

                     31                     32                     33
                      A                      A                      A
 Frequencies --   1517.3686              1528.1130              1528.2168
 Red. masses --      1.0664                 1.0713                 1.0713
 Frc consts  --      1.4465                 1.4739                 1.4741
 IR Inten    --      0.0000                 0.0000                 0.0000

                     34                     35                     36
                      A                      A                      A
 Frequencies --   1551.5497              1551.8161              1570.2196
 Red. masses --      1.0813                 1.0812                 1.0835
 Frc consts  --      1.5337                 1.5341                 1.5740
 IR Inten    --      0.2996                 0.2993                 0.0000

                     37                     38                     39
                      A                      A                      A
 Frequencies --   3034.2067              3042.0933              3042.1493
 Red. masses --      1.0619                 1.0608                 1.0608
 Frc consts  --      5.7601                 5.7842                 5.7844
 IR Inten    --      0.0003                 0.0001                 0.0002

                     40                     41                     42
                      A                      A                      A
 Frequencies --   3047.1106              3059.7523              3059.7790
 Red. masses --      1.1063                 1.0611                 1.0611
 Frc consts  --      6.0522                 5.8531                 5.8532
 IR Inten    --      0.0003               144.7940               144.7883

                     43                     44                     45
                      A                      A                      A
 Frequencies --   3062.1615              3062.2294              3073.1306
 Red. masses --      1.1059                 1.1059                 1.0624
 Frc consts  --      6.1098                 6.1100                 5.9118
 IR Inten    --      0.0021                 0.0020                 0.0000

                     46                     47                     48
                      A                      A                      A
 Frequencies --   3092.1750              3092.2214              3109.7927
 Red. masses --      1.1053                 1.1053                 1.1047
 Frc consts  --      6.2266                 6.2269                 6.2943
 IR Inten    --      0.0001                 0.0001               171.2302

 - Thermochemistry -
 -------------------
 Temperature   298.150 Kelvin.  Pressure   1.00000 Atm.
 Atom     1 has atomic number  6 and mass  12.00000

 Molecular mass:    84.09390 amu.
 Principal axes and moments of inertia in atomic units:
                           1         2         3
     Eigenvalues --   450.31090 450.33902 835.56780
           X            1.00000   0.00024  -0.00053
           Y           -0.00024   1.00000  -0.00035
           Z            0.00053   0.00035   1.00000
 This molecule is an asymmetric top.
 Rotational symmetry number  1.
 Warning -- assumption of classical behavior for rotation
           may cause significant error
 Rotational temperatures (Kelvin)      0.19234     0.19233     0.10366
 Rotational constants (GHZ):           4.00777     4.00752     2.15990
    3 imaginary frequencies ignored.
 Zero-point vibrational energy     450064.5 (Joules/Mol)
                                  107.56800 (Kcal/Mol)
 Warning -- explicit consideration of   2 degrees of freedom as
           vibrations may cause significant error
 Vibrational temperatures:    691.19   691.38  1033.81  1061.21  1077.65
          (Kelvin)           1078.33  1226.77  1252.58  1253.43  1377.73
                             1378.02  1626.97  1627.51  1629.36  1645.56
                             1814.28  1900.43  1904.04  1904.25  1923.70
                             1923.84  1933.16  1984.28  2007.67  2007.92
                             2043.53  2043.66  2183.15  2198.61  2198.76
                             2232.33  2232.72  2259.20  4365.55  4376.89
                             4376.97  4384.11  4402.30  4402.34  4405.77
                             4405.87  4421.55  4448.95  4449.02  4474.30

 Zero-point correction=                           0.171421 (Hartree/Particle)
 Thermal correction to Energy=                    0.175617
 Thermal correction to Enthalpy=                  0.176561
 Thermal correction to Gibbs Free Energy=         0.143516
 Sum of electronic and zero-point Energies=           -235.667763
 Sum of electronic and thermal Energies=              -235.663567
 Sum of electronic and thermal Enthalpies=            -235.662623
 Sum of electronic and thermal Free Energies=         -235.695668

                     E (Thermal)             CV                S
                      KCal/Mol        Cal/Mol-Kelvin    Cal/Mol-Kelvin
 Total                  110.201             16.974             69.549
 Electronic               0.000              0.000              0.000
 Translational            0.889              2.981             39.202
 Rotational               0.889              2.981             26.630
 Vibrational            108.424             11.012              3.718
 Vibration     1          0.837              1.294              0.709
 Vibration     2          0.837              1.293              0.709

                           ! Non-Optimized Parameters !
 Normal termination of Gaussian 16 at Wed May 19 15:25:44 2021.
