 Gaussian 16, Revision B.01,
 Gaussian 16:  EM64M-G16RevB.01 20-Dec-2017

 ----------------------------------
 # symm=loose opt b3lyp/6-31G* freq
 ----------------------------------

 -----------------
 planar_chex_mode3
 -----------------
 Symbolic Z-matrix:
 Charge =  0 Multiplicity = 1

 SCF Done:  E(RB3LYP) =  -235.839689446     A.U. after   10 cycles
 SCF Done:  E(RB3LYP) =  -235.841580207     A.U. after    9 cycles
 SCF Done:  E(RB3LYP) =  -235.847270176     A.U. after   10 cycles
 SCF Done:  E(RB3LYP) =  -235.854963514     A.U. after   10 cycles
 SCF Done:  E(RB3LYP) =  -235.816650556     A.U. after   11 cycles
 SCF Done:  E(RB3LYP) =  -235.861761868     A.U. after   10 cycles
 SCF Done:  E(RB3LYP) =  -235.868269982     A.U. after   10 cycles
 SCF Done:  E(RB3LYP) =  -235.869538765     A.U. after   10 cycles
 SCF Done:  E(RB3LYP) =  -235.869821590     A.U. after   10 cycles
 SCF Done:  E(RB3LYP) =  -235.869992641     A.U. after   10 cycles
 SCF Done:  E(RB3LYP) =  -235.870096607     A.U. after   10 cycles
 SCF Done:  E(RB3LYP) =  -235.870116312     A.U. after    9 cycles
 SCF Done:  E(RB3LYP) =  -235.870121274     A.U. after    9 cycles
 SCF Done:  E(RB3LYP) =  -235.870121982     A.U. after    6 cycles
 SCF Done:  E(RB3LYP) =  -235.870122144     A.U. after    7 cycles
 Optimization completed.
    -- Stationary point found.
 Normal termination of Gaussian 16 at Wed May 19 15:34:09 2021.

 --------------------------------------------------------------------
 #N Geom=AllCheck Guess=TCheck SCRF=Check GenChk RB3LYP/6-31G(d) Freq
 --------------------------------------------------------------------

 Structure from the checkpoint file:  "planar_chex_mode3.chk"
 -----------------
 planar_chex_mode3
 -----------------
 Charge =  0 Multiplicity = 1

                         Standard orientation:
 ---------------------------------------------------------------------
 Center     Atomic      Atomic             Coordinates (Angstroms)
 Number     Number       Type             X           Y           Z
 ---------------------------------------------------------------------
      1          6           0        1.228154    0.665690    0.381659
      2          6           0        1.227825   -0.665782   -0.382006
      3          6           0       -0.000000   -1.528277    0.000335
      4          6           0       -1.228154   -0.665690    0.381659
      5          6           0       -1.227825    0.665782   -0.382006
      6          6           0        0.000000    1.528277    0.000335
      7          1           0        1.215311    0.454527    1.459953
      8          1           0        1.214149   -0.454668   -1.460300
      9          1           0       -0.254436   -2.188028   -0.839043
     10          1           0       -2.154137   -1.222025    0.192067
     11          1           0       -1.214149    0.454668   -1.460300
     12          1           0       -0.254662    2.186883    0.840538
     13          1           0        0.254436    2.188028   -0.839043
     14          1           0       -2.153937    1.222160   -0.193142
     15          1           0        2.154137    1.222025    0.192067
     16          1           0        2.153937   -1.222160   -0.193142
     17          1           0        0.254662   -2.186883    0.840538
     18          1           0       -1.215311   -0.454527    1.459953
 ---------------------------------------------------------------------

 SCF Done:  E(RB3LYP) =  -235.870122142     A.U. after    4 cycles

 The electronic state is 1-A.
 Alpha  occ. eigenvalues --  -10.17335 -10.17333 -10.17308 -10.17301 -10.17286
 Alpha  occ. eigenvalues --  -10.17283  -0.81743  -0.72839  -0.72717  -0.60798
 Alpha  occ. eigenvalues --   -0.59986  -0.51887  -0.47472  -0.46989  -0.42621
 Alpha  occ. eigenvalues --   -0.39521  -0.36941  -0.36167  -0.35726  -0.35093
 Alpha  occ. eigenvalues --   -0.34341  -0.29317  -0.29278  -0.29194
 Alpha virt. eigenvalues --    0.08013   0.10927   0.13330   0.14805   0.15194
 Alpha virt. eigenvalues --    0.15720   0.15916   0.17672   0.18612   0.18618
 Alpha virt. eigenvalues --    0.21153   0.21690   0.22169   0.24744   0.25224

 Mulliken charges:
               1
     1  C   -0.262202
     2  C   -0.262195
     3  C   -0.257258
     4  C   -0.262202
     5  C   -0.262195
     6  C   -0.257258
     7  H    0.130648
     8  H    0.130653
     9  H    0.130266
    10  H    0.129915
    11  H    0.130653
    12  H    0.130270
    13  H    0.130266
    14  H    0.129904
    15  H    0.129915
    16  H    0.129904
    17  H    0.130270
    18  H    0.130648
 Sum of Mulliken charges =  -0.00000

 Dipole moment (field-independent basis, Debye):
    X=              0.0000    Y=              0.0000    Z=             -0.0001  Tot=              0.0001
 Quadrupole moment (field-independent basis, Debye-Ang):
   XX=            -39.8776   YY=            -40.0753   ZZ=            -39.3611
   XY=              0.0002   XZ=              0.0000   YZ=              0.0000

  Exact polarizability:  62.462  -0.000  62.904   0.000  -0.000  55.956
 Approx polarizability:  80.314  -0.000  80.525  -0.000  -0.000  83.236

                      1                      2                      3
                      A                      B                      A
 Frequencies --    107.3323               237.6693               270.7462
 Red. masses --      1.7035                 1.5051                 1.8265
 Frc consts  --      0.0116                 0.0501                 0.0789
 IR Inten    --      0.0161                 0.0447                 0.0000

                      4                      5                      6
                      A                      A                      B
 Frequencies --    427.1955               468.1181               558.4081
 Red. masses --      2.2978                 4.3703                 1.5934
 Frc consts  --      0.2471                 0.5642                 0.2927
 IR Inten    --      0.3607                 0.0000                 0.7951

                      7                      8                      9
                      B                      A                      A
 Frequencies --    772.6111               784.6964               809.6500
 Red. masses --      1.1635                 1.4272                 3.4028
 Frc consts  --      0.4092                 0.5178                 1.3143
 IR Inten    --      1.3478                 1.8292                 0.0000

                     10                     11                     12
                      B                      B                      A
 Frequencies --    870.0128               878.0127               910.7068
 Red. masses --      2.5938                 2.3496                 1.4264
 Frc consts  --      1.1567                 1.0672                 0.6970
 IR Inten    --      0.7269                 1.1956                 0.0175

                     13                     14                     15
                      A                      B                      A
 Frequencies --    950.6639              1026.3511              1039.2038
 Red. masses --      1.3819                 2.2809                 1.8683
 Frc consts  --      0.7358                 1.4156                 1.1888
 IR Inten    --      0.0000                 1.1573                 0.0000

                     16                     17                     18
                      A                      B                      B
 Frequencies --   1065.0215              1110.5529              1124.1018
 Red. masses --      1.8338                 3.9387                 1.0388
 Frc consts  --      1.2255                 2.8621                 0.7733
 IR Inten    --      0.2148                 0.0015                 0.0474

                     19                     20                     21
                      B                      B                      A
 Frequencies --   1162.2682              1186.5870              1271.2731
 Red. masses --      1.1497                 1.8745                 1.3160
 Frc consts  --      0.9151                 1.5551                 1.2531
 IR Inten    --      0.0594                 2.4091                 0.3024

                     22                     23                     24
                      A                      A                      B
 Frequencies --   1281.1075              1310.5723              1321.9282
 Red. masses --      1.2124                 1.2778                 1.0911
 Frc consts  --      1.1724                 1.2932                 1.1233
 IR Inten    --      0.0000                 0.0000                 1.0211

                     25                     26                     27
                      A                      A                      B
 Frequencies --   1355.5543              1374.5125              1391.9703
 Red. masses --      1.3339                 1.5153                 1.2505
 Frc consts  --      1.4442                 1.6867                 1.4275
 IR Inten    --      0.2271                 0.0087                 1.1974

                     28                     29                     30
                      B                      B                      A
 Frequencies --   1398.7990              1399.7491              1402.0702
 Red. masses --      1.4489                 1.3886                 1.4396
 Frc consts  --      1.6703                 1.6030                 1.6673
 IR Inten    --      2.8998                 3.9527                 0.0000

                     31                     32                     33
                      A                      B                      B
 Frequencies --   1515.9772              1516.4167              1525.6979
 Red. masses --      1.0748                 1.0769                 1.0897
 Frc consts  --      1.4553                 1.4590                 1.4945
 IR Inten    --      0.0000                 0.0133                 1.1730

                     34                     35                     36
                      B                      A                      A
 Frequencies --   1529.8753              1533.9576              1549.3219
 Red. masses --      1.0996                 1.0793                 1.0973
 Frc consts  --      1.5164                 1.4963                 1.5519
 IR Inten    --      1.8347                 7.5719                 0.0000

                     37                     38                     39
                      B                      B                      A
 Frequencies --   3022.1592              3030.4465              3030.7099
 Red. masses --      1.0724                 1.0602                 1.0638
 Frc consts  --      5.7711                 5.7368                 5.7570
 IR Inten    --     23.3247                 8.9758                 0.0000

                     40                     41                     42
                      A                      B                      A
 Frequencies --   3036.5359              3041.5746              3041.9859
 Red. masses --      1.0638                 1.0636                 1.0690
 Frc consts  --      5.7791                 5.7973                 5.8284
 IR Inten    --     54.7486                72.0224                 0.0000

                     43                     44                     45
                      A                      B                      B
 Frequencies --   3062.1275              3065.0224              3075.2971
 Red. masses --      1.1010                 1.0933                 1.1020
 Frc consts  --      6.0826                 6.0515                 6.1405
 IR Inten    --     11.2762                50.7289                67.9018

                     46                     47                     48
                      A                      B                      A
 Frequencies --   3079.2462              3084.5947              3091.7693
 Red. masses --      1.0927                 1.1024                 1.1053
 Frc consts  --      6.1044                 6.1798                 6.2249
 IR Inten    --      0.0002                74.8030               130.9384

 - Thermochemistry -
 -------------------
 Temperature   298.150 Kelvin.  Pressure   1.00000 Atm.
 Atom     1 has atomic number  6 and mass  12.00000

 Molecular mass:    84.09390 amu.
 Principal axes and moments of inertia in atomic units:
                           1         2         3
     Eigenvalues --   413.82140 435.87675 716.95853
           X            0.00045   1.00000   0.00000
           Y            1.00000  -0.00045   0.00000
           Z            0.00000   0.00000   1.00000
 This molecule is an asymmetric top.
 Rotational symmetry number  2.
 Rotational temperatures (Kelvin)      0.20930     0.19871     0.12081
 Rotational constants (GHZ):           4.36116     4.14049     2.51722
 Zero-point vibrational energy     449198.7 (Joules/Mol)
                                  107.36107 (Kcal/Mol)
 Warning -- explicit consideration of   6 degrees of freedom as
           vibrations may cause significant error
 Vibrational temperatures:    154.43   341.95   389.54   614.64   673.52
          (Kelvin)            803.42  1111.62  1129.00  1164.91  1251.75
                             1263.26  1310.30  1367.79  1476.69  1495.18
                             1532.33  1597.84  1617.33  1672.24  1707.23
                             1829.08  1843.23  1885.62  1901.96  1950.34
                             1977.62  2002.73  2012.56  2013.93  2017.27
                             2181.15  2181.79  2195.14  2201.15  2207.02
                             2229.13  4348.21  4360.14  4360.52  4368.90
                             4376.15  4376.74  4405.72  4409.88  4424.67
                             4430.35  4438.04  4448.37

 Zero-point correction=                           0.171091 (Hartree/Particle)
 Thermal correction to Energy=                    0.177080
 Thermal correction to Enthalpy=                  0.178024
 Thermal correction to Gibbs Free Energy=         0.142393
 Sum of electronic and zero-point Energies=           -235.699031
 Sum of electronic and thermal Energies=              -235.693042
 Sum of electronic and thermal Enthalpies=            -235.692098
 Sum of electronic and thermal Free Energies=         -235.727729

                     E (Thermal)             CV                S
                      KCal/Mol        Cal/Mol-Kelvin    Cal/Mol-Kelvin
 Total                  111.119             22.916             74.992
 Electronic               0.000              0.000              0.000
 Translational            0.889              2.981             39.202
 Rotational               0.889              2.981             24.984
 Vibrational            109.342             16.954             10.806
 Vibration     1          0.606              1.943              3.317
 Vibration     2          0.656              1.783              1.820
 Vibration     3          0.674              1.727              1.591
 Vibration     4          0.789              1.411              0.868
 Vibration     5          0.825              1.321              0.743
 Vibration     6          0.914              1.121              0.527

 Optimization completed.
    -- Stationary point found.
 Normal termination of Gaussian 16 at Wed May 19 15:35:09 2021.
