 Gaussian 16, Revision B.01,
 Gaussian 16:  EM64M-G16RevB.01 20-Dec-2017

 ----------------------------------
 # symm=loose opt b3lyp/6-31G* freq
 ----------------------------------

 -----------------
 planar_chex_mode1
 -----------------
 Symbolic Z-matrix:
 Charge =  0 Multiplicity = 1

 SCF Done:  E(RB3LYP) =  -235.840228845     A.U. after   10 cycles
 SCF Done:  E(RB3LYP) =  -235.842740443     A.U. after    9 cycles
 SCF Done:  E(RB3LYP) =  -235.848944611     A.U. after   10 cycles
 SCF Done:  E(RB3LYP) =  -235.857070905     A.U. after   10 cycles
 SCF Done:  E(RB3LYP) =  -235.865789297     A.U. after   10 cycles
 SCF Done:  E(RB3LYP) =  -235.873456967     A.U. after   10 cycles
 SCF Done:  E(RB3LYP) =  -235.878532315     A.U. after   11 cycles
 SCF Done:  E(RB3LYP) =  -235.880363794     A.U. after   10 cycles
 SCF Done:  E(RB3LYP) =  -235.880441264     A.U. after    8 cycles
 SCF Done:  E(RB3LYP) =  -235.880447224     A.U. after    6 cycles
 Optimization completed.
    -- Stationary point found.
 Normal termination of Gaussian 16 at Wed May 19 15:29:25 2021.

 --------------------------------------------------------------------
 #N Geom=AllCheck Guess=TCheck SCRF=Check GenChk RB3LYP/6-31G(d) Freq
 --------------------------------------------------------------------

 Structure from the checkpoint file:  "planar_chex_mode1.chk"
 -----------------
 planar_chex_mode1
 -----------------
 Charge =  0 Multiplicity = 1

                         Standard orientation:
 ---------------------------------------------------------------------
 Center     Atomic      Atomic             Coordinates (Angstroms)
 Number     Number       Type             X           Y           Z
 ---------------------------------------------------------------------
      1          6           0       -0.787397    1.238091    0.228487
      2          6           0        0.678371    1.300714   -0.230360
      3          6           0        1.465864    0.063108    0.229128
      4          6           0        0.787368   -1.238110   -0.228485
      5          6           0       -0.678369   -1.300675    0.230451
      6          6           0       -1.465828   -0.063122   -0.229220
      7          1           0       -0.823813    1.296215    1.326791
      8          1           0        0.709650    1.360249   -1.328757
      9          1           0        2.496328    0.107030   -0.146727
     10          1           0        0.823691   -1.296296   -1.326789
     11          1           0       -1.155407   -2.215582   -0.144315
     12          1           0       -2.496315   -0.107056    0.146559
     13          1           0       -1.534024   -0.066857   -1.327576
     14          1           0       -0.709658   -1.360112    1.328862
     15          1           0       -1.341017    2.108236   -0.147626
     16          1           0        1.155389    2.215604    0.144481
     17          1           0        1.534144    0.066796    1.327470
     18          1           0        1.340973   -2.108264    0.147629
 ---------------------------------------------------------------------

 SCF Done:  E(RB3LYP) =  -235.880447183     A.U. after    1 cycles

 The electronic state is 1-A.
 Alpha  occ. eigenvalues --  -10.17361 -10.17352 -10.17352 -10.17332 -10.17332
 Alpha  occ. eigenvalues --  -10.17320  -0.81940  -0.73138  -0.73137  -0.59912
 Alpha  occ. eigenvalues --   -0.59912  -0.54294  -0.47079  -0.43494  -0.42797
 Alpha  occ. eigenvalues --   -0.42796  -0.37059  -0.37059  -0.36319  -0.33485
 Alpha  occ. eigenvalues --   -0.33483  -0.30981  -0.29195  -0.29195
 Alpha virt. eigenvalues --    0.08774   0.11313   0.13623   0.13624   0.16522
 Alpha virt. eigenvalues --    0.17407   0.17407   0.17453   0.18670   0.18673
 Alpha virt. eigenvalues --    0.18856   0.18857   0.24118   0.24118   0.25482

 Mulliken charges:
               1
     1  C   -0.254199
     2  C   -0.254237
     3  C   -0.254218
     4  C   -0.254199
     5  C   -0.254235
     6  C   -0.254216
     7  H    0.126076
     8  H    0.126078
     9  H    0.128147
    10  H    0.126076
    11  H    0.128143
    12  H    0.128145
    13  H    0.126074
    14  H    0.126078
    15  H    0.128134
    16  H    0.128145
    17  H    0.126074
    18  H    0.128134
 Sum of Mulliken charges =  -0.00000

 Dipole moment (field-independent basis, Debye):
    X=             -0.0000    Y=             -0.0000    Z=              0.0000  Tot=              0.0000
 Quadrupole moment (field-independent basis, Debye-Ang):
   XX=            -40.0443   YY=            -40.0444   ZZ=            -39.4708
   XY=              0.0001   XZ=              0.0003   YZ=              0.0002

  Exact polarizability:  63.661   0.000  63.660   0.000  -0.006  56.446
 Approx polarizability:  81.689  -0.000  81.689   0.003   0.001  85.356

                      1                      2                      3
                      A                      A                      A
 Frequencies --    232.5111               232.9364               380.2013
 Red. masses --      1.7639                 1.7637                 1.5448
 Frc consts  --      0.0562                 0.0564                 0.1316
 IR Inten    --      0.0201                 0.0201                 0.0000

                      4                      5                      6
                      A                      A                      A
 Frequencies --    431.7567               432.1823               524.5887
 Red. masses --      2.9828                 2.9833                 1.3147
 Frc consts  --      0.3276                 0.3283                 0.2132
 IR Inten    --      0.0000                 0.0000                 0.4933

                      7                      8                      9
                      A                      A                      A
 Frequencies --    801.6505               801.7642               808.4636
 Red. masses --      1.4507                 1.4510                 3.5332
 Frc consts  --      0.5493                 0.5496                 1.3606
 IR Inten    --      0.0000                 0.0000                 0.0000

                     10                     11                     12
                      A                      A                      A
 Frequencies --    871.1555               871.5711               927.4375
 Red. masses --      2.4211                 2.4205                 1.2845
 Frc consts  --      1.0826                 1.0833                 0.6510
 IR Inten    --      1.0786                 1.0769                 2.0663

                     13                     14                     15
                      A                      A                      A
 Frequencies --    927.4488              1042.2426              1042.4579
 Red. masses --      1.2844                 1.7551                 1.7526
 Frc consts  --      0.6509                 1.1233                 1.1222
 IR Inten    --      2.0656                 0.0000                 0.0000

                     16                     17                     18
                      A                      A                      A
 Frequencies --   1050.4884              1082.9996              1105.6662
 Red. masses --      2.5965                 1.0104                 2.6102
 Frc consts  --      1.6882                 0.6982                 1.8801
 IR Inten    --      1.4942                 0.0000                 0.0000

                     19                     20                     21
                      A                      A                      A
 Frequencies --   1139.9986              1195.5640              1300.5380
 Red. masses --      1.0714                 2.2369                 1.2917
 Frc consts  --      0.8204                 1.8838                 1.2873
 IR Inten    --      0.0000                 0.0000                 3.0315

                     22                     23                     24
                      A                      A                      A
 Frequencies --   1300.7539              1305.4763              1305.5495
 Red. masses --      1.2917                 1.2325                 1.2328
 Frc consts  --      1.2877                 1.2376                 1.2380
 IR Inten    --      3.0224                 0.0000                 0.0000

                     25                     26                     27
                      A                      A                      A
 Frequencies --   1364.1017              1394.1858              1400.0348
 Red. masses --      1.3048                 1.3309                 1.5099
 Frc consts  --      1.4305                 1.5242                 1.7437
 IR Inten    --      0.0000                 0.0001                 0.0000

                     28                     29                     30
                      A                      A                      A
 Frequencies --   1400.2334              1404.1951              1404.3041
 Red. masses --      1.5107                 1.4312                 1.4316
 Frc consts  --      1.7451                 1.6627                 1.6634
 IR Inten    --      0.0000                 3.1578                 3.1639

                     31                     32                     33
                      A                      A                      A
 Frequencies --   1512.1725              1512.2380              1519.1844
 Red. masses --      1.0867                 1.0868                 1.1010
 Frc consts  --      1.4641                 1.4643                 1.4972
 IR Inten    --      0.0000                 0.0000                 2.6194

                     34                     35                     36
                      A                      A                      A
 Frequencies --   1519.2373              1522.7731              1539.9228
 Red. masses --      1.1012                 1.0783                 1.1005
 Frc consts  --      1.4975                 1.4732                 1.5376
 IR Inten    --      2.6267                11.2920                 0.0000

                     37                     38                     39
                      A                      A                      A
 Frequencies --   3015.4298              3015.5399              3018.1501
 Red. masses --      1.0693                 1.0692                 1.0739
 Frc consts  --      5.7284                 5.7285                 5.7635
 IR Inten    --     30.0358                30.1749                 0.0034

                     40                     41                     42
                      A                      A                      A
 Frequencies --   3020.9740              3021.0453              3024.4441
 Red. masses --      1.0613                 1.0613                 1.0597
 Frc consts  --      5.7067                 5.7068                 5.7111
 IR Inten    --      0.0013                 0.0008                68.9734

                     43                     44                     45
                      A                      A                      A
 Frequencies --   3064.7731              3064.8870              3067.8229
 Red. masses --      1.0934                 1.0934                 1.1031
 Frc consts  --      6.0510                 6.0512                 6.1167
 IR Inten    --    121.6651               121.8049                 0.0001

                     46                     47                     48
                      A                      A                      A
 Frequencies --   3067.8832              3068.4161              3076.3111
 Red. masses --      1.1032                 1.0892                 1.1053
 Frc consts  --      6.1176                 6.0419                 6.1630
 IR Inten    --      0.0002                 0.0010               155.9980

 - Thermochemistry -
 -------------------
 Temperature   298.150 Kelvin.  Pressure   1.00000 Atm.
 Atom     1 has atomic number  6 and mass  12.00000

 Molecular mass:    84.09390 amu.
 Principal axes and moments of inertia in atomic units:
                           1         2         3
     Eigenvalues --   421.62291 421.64217 739.15866
           X            0.99971  -0.02402   0.00009
           Y            0.02402   0.99971   0.00076
           Z           -0.00011  -0.00076   1.00000
 This molecule is an asymmetric top.
 Rotational symmetry number  1.
 Rotational temperatures (Kelvin)      0.20543     0.20542     0.11718
 Rotational constants (GHZ):           4.28046     4.28027     2.44162
 Zero-point vibrational energy     449399.1 (Joules/Mol)
                                  107.40896 (Kcal/Mol)
 Warning -- explicit consideration of   6 degrees of freedom as
           vibrations may cause significant error
 Vibrational temperatures:    334.53   335.14   547.02   621.20   621.81
          (Kelvin)            754.77  1153.40  1153.56  1163.20  1253.40
                             1254.00  1334.38  1334.39  1499.55  1499.86
                             1511.42  1558.19  1590.81  1640.20  1720.15
                             1871.18  1871.49  1878.29  1878.39  1962.64
                             2005.92  2014.34  2014.62  2020.32  2020.48
                             2175.68  2175.77  2185.77  2185.84  2190.93
                             2215.61  4338.53  4338.69  4342.44  4346.51
                             4346.61  4351.50  4409.52  4409.69  4413.91
                             4414.00  4414.77  4426.13

 Zero-point correction=                           0.171167 (Hartree/Particle)
 Thermal correction to Energy=                    0.176865
 Thermal correction to Enthalpy=                  0.177810
 Thermal correction to Gibbs Free Energy=         0.142388
 Sum of electronic and zero-point Energies=           -235.709280
 Sum of electronic and thermal Energies=              -235.703582
 Sum of electronic and thermal Enthalpies=            -235.702638
 Sum of electronic and thermal Free Energies=         -235.738060

                     E (Thermal)             CV                S
                      KCal/Mol        Cal/Mol-Kelvin    Cal/Mol-Kelvin
 Total                  110.985             22.663             74.552
 Electronic               0.000              0.000              0.000
 Translational            0.889              2.981             39.202
 Rotational               0.889              2.981             26.377
 Vibrational            109.207             16.702              8.973
 Vibration     1          0.653              1.791              1.859
 Vibration     2          0.654              1.791              1.856
 Vibration     3          0.750              1.512              1.038
 Vibration     4          0.793              1.401              0.853
 Vibration     5          0.793              1.400              0.852
 Vibration     6          0.880              1.196              0.599

 Optimization completed.
    -- Stationary point found.
 Normal termination of Gaussian 16 at Wed May 19 15:31:03 2021.
