 Gaussian 16, Revision B.01,
 Gaussian 16:  ES64L-G16RevB.01 20-Dec-2017

 ----------------------------------------------------------------------
 # irc(calcfc,reverse,maxpoints=200,maxcycles=200,update=5) b3lyp/6-31g
 (d)
 ----------------------------------------------------------------------

 --------------------------------------
 claisen_ts_IRCFcreated by GaussianPrep
 --------------------------------------
 Symbolic Z-matrix:
 Charge =  0 Multiplicity = 1

 SCF Done:  E(RB3LYP) =  -270.461121387     A.U. after   14 cycles
 SCF Done:  E(RB3LYP) =  -270.461517021     A.U. after   13 cycles
 SCF Done:  E(RB3LYP) =  -270.462687407     A.U. after   13 cycles
 SCF Done:  E(RB3LYP) =  -270.464603689     A.U. after   13 cycles
 SCF Done:  E(RB3LYP) =  -270.467218444     A.U. after   13 cycles
 SCF Done:  E(RB3LYP) =  -270.470476248     A.U. after   13 cycles
 SCF Done:  E(RB3LYP) =  -270.474310296     A.U. after   13 cycles
 SCF Done:  E(RB3LYP) =  -270.478637840     A.U. after   13 cycles
 SCF Done:  E(RB3LYP) =  -270.483361503     A.U. after   13 cycles
 SCF Done:  E(RB3LYP) =  -270.488355367     A.U. after   13 cycles
 SCF Done:  E(RB3LYP) =  -270.533387494     A.U. after   12 cycles
 SCF Done:  E(RB3LYP) =  -270.533388860     A.U. after    9 cycles
 SCF Done:  E(RB3LYP) =  -270.533389157     A.U. after   10 cycles
 SCF Done:  E(RB3LYP) =  -270.533389352     A.U. after    9 cycles
 SCF Done:  E(RB3LYP) =  -270.533389475     A.U. after    9 cycles
 SCF Done:  E(RB3LYP) =  -270.533389522     A.U. after    9 cycles
 SCF Done:  E(RB3LYP) =  -270.533389594     A.U. after    9 cycles
 SCF Done:  E(RB3LYP) =  -270.533389603     A.U. after    8 cycles
 SCF Done:  E(RB3LYP) =  -270.533389647     A.U. after    8 cycles
 SCF Done:  E(RB3LYP) =  -270.533389645     A.U. after    8 cycles

                          Input orientation:
 ---------------------------------------------------------------------
 Center     Atomic      Atomic             Coordinates (Angstroms)
 Number     Number       Type             X           Y           Z
 ---------------------------------------------------------------------
      1          6           0       -0.986124    0.806379   -0.222312
      2          6           0       -1.339445   -0.584508    0.260279
      3          8           0       -1.729596   -1.485747   -0.446518
      4          6           0        2.384094   -0.292386    0.432878
      5          6           0        1.524279    0.427182   -0.288671
      6          6           0        0.404706    1.260590    0.276783
      7          1           0       -1.748963    1.497063    0.168475
      8          1           0       -1.049026    0.820614   -1.315554
      9          1           0       -1.219919   -0.735598    1.358955
     10          1           0        3.168297   -0.882460   -0.033264
     11          1           0        2.339052   -0.317687    1.520089
     12          1           0        1.604588    0.417794   -1.376927
     13          1           0        0.540833    2.313132   -0.007610
     14          1           0        0.433391    1.226586    1.373993
 ---------------------------------------------------------------------

 Alpha  occ. eigenvalues --  -19.14792 -10.27644 -10.20535 -10.20158 -10.19641
 Alpha  occ. eigenvalues --  -10.18549  -1.04360  -0.81643  -0.75141  -0.66287
 Alpha  occ. eigenvalues --   -0.57803  -0.56392  -0.48193  -0.46534  -0.44731
 Alpha  occ. eigenvalues --   -0.43900  -0.41446  -0.39031  -0.37145  -0.36018
 Alpha  occ. eigenvalues --   -0.34351  -0.26545  -0.24832
 Alpha virt. eigenvalues --   -0.02087   0.01316   0.10122   0.10713   0.12697
 Alpha virt. eigenvalues --    0.14709   0.15566   0.16670   0.16806   0.18671
 Alpha virt. eigenvalues --    0.21988   0.26764   0.27384   0.31195   0.36786

 Mulliken charges:
               1
     1  C   -0.337443
     2  C    0.271141
     3  O   -0.382267
     4  C   -0.336326
     5  C   -0.040423
     6  C   -0.321112
     7  H    0.161485
     8  H    0.166537
     9  H    0.096542
    10  H    0.146256
    11  H    0.137731
    12  H    0.133624
    13  H    0.157900
    14  H    0.146354
 Sum of Mulliken charges =  -0.00000

 Dipole moment (field-independent basis, Debye):
    X=              0.9043    Y=              2.3606    Z=              1.0223  Tot=              2.7268
 Quadrupole moment (field-independent basis, Debye-Ang):
   XX=            -38.5208   YY=            -39.7451   ZZ=            -35.1504
   XY=             -5.2643   XZ=             -2.1817   YZ=             -1.7533

  Exact polarizability:   0.000   0.000   0.000   0.000   0.000   0.000
 Approx polarizability:  71.796 -10.284  76.276  11.737  -0.451  79.564

 Normal termination of Gaussian 16 at Thu Jan 13 13:51:12 2022.
