 Gaussian 16, Revision B.01,
 Gaussian 16:  EM64M-G16RevB.01 20-Dec-2017

 -------------------------
 # opt freq b3lyp/6-31g(d)
 -------------------------

 ---------------
 claisen_ts_QRCR
 ---------------
 Symbolic Z-matrix:
 Charge =  0 Multiplicity = 1

 SCF Done:  E(RB3LYP) =  -270.471512328     A.U. after   14 cycles
 SCF Done:  E(RB3LYP) =  -270.478539513     A.U. after   15 cycles
 SCF Done:  E(RB3LYP) =  -270.485136040     A.U. after   13 cycles
 SCF Done:  E(RB3LYP) =  -270.492285745     A.U. after   13 cycles
 SCF Done:  E(RB3LYP) =  -270.495762151     A.U. after   12 cycles
 SCF Done:  E(RB3LYP) =  -270.498755421     A.U. after   14 cycles
 SCF Done:  E(RB3LYP) =  -270.501121522     A.U. after   14 cycles
 SCF Done:  E(RB3LYP) =  -270.503701823     A.U. after   14 cycles
 SCF Done:  E(RB3LYP) =  -270.504463163     A.U. after   13 cycles
 SCF Done:  E(RB3LYP) =  -270.504672031     A.U. after   12 cycles
 SCF Done:  E(RB3LYP) =  -270.504721615     A.U. after   11 cycles
 SCF Done:  E(RB3LYP) =  -270.504732290     A.U. after    9 cycles
 SCF Done:  E(RB3LYP) =  -270.504736466     A.U. after    8 cycles
 SCF Done:  E(RB3LYP) =  -270.504740311     A.U. after    9 cycles
 SCF Done:  E(RB3LYP) =  -270.504742391     A.U. after    9 cycles
 SCF Done:  E(RB3LYP) =  -270.504744765     A.U. after   10 cycles
 SCF Done:  E(RB3LYP) =  -270.504745006     A.U. after    8 cycles
 Optimization completed.
    -- Stationary point found.
 Normal termination of Gaussian 16 at Mon May  7 11:49:44 2018.

 --------------------------------------------------------------------
 #N Geom=AllCheck Guess=TCheck SCRF=Check GenChk RB3LYP/6-31G(d) Freq
 --------------------------------------------------------------------

 Structure from the checkpoint file:  "claisen_ts_QRCR.chk"
 ---------------
 claisen_ts_QRCR
 ---------------
 Charge =  0 Multiplicity = 1

                         Standard orientation:
 ---------------------------------------------------------------------
 Center     Atomic      Atomic             Coordinates (Angstroms)
 Number     Number       Type             X           Y           Z
 ---------------------------------------------------------------------
      1          6           0       -2.617827    0.584716   -0.127554
      2          6           0       -1.358813    0.332964    0.229801
      3          8           0       -0.718494   -0.821659   -0.118431
      4          6           0        0.646611   -0.929012    0.301975
      5          6           0        1.565077   -0.027077   -0.474573
      6          6           0        2.439686    0.810808    0.082173
      7          1           0       -3.093470    1.507352    0.183205
      8          1           0       -3.189371   -0.115932   -0.727385
      9          1           0       -0.771215    1.031820    0.824748
     10          1           0        0.899331   -1.980605    0.127239
     11          1           0        0.732901   -0.735774    1.381180
     12          1           0        1.484781   -0.101462   -1.558716
     13          1           0        3.103823    1.428253   -0.516373
     14          1           0        2.532767    0.905225    1.162618
 ---------------------------------------------------------------------

 SCF Done:  E(RB3LYP) =  -270.504745006     A.U. after    1 cycles

 The electronic state is 1-A.
 Alpha  occ. eigenvalues --  -19.16975 -10.24641 -10.23204 -10.19863 -10.19389
 Alpha  occ. eigenvalues --  -10.16067  -1.05371  -0.79737  -0.74828  -0.67852
 Alpha  occ. eigenvalues --   -0.58213  -0.56680  -0.51194  -0.47741  -0.45804
 Alpha  occ. eigenvalues --   -0.43882  -0.40204  -0.38259  -0.38148  -0.33763
 Alpha  occ. eigenvalues --   -0.32590  -0.27302  -0.21679
 Alpha virt. eigenvalues --    0.00226   0.04215   0.10676   0.11416   0.13080
 Alpha virt. eigenvalues --    0.14267   0.15513   0.16581   0.18037   0.18796
 Alpha virt. eigenvalues --    0.20657   0.28847   0.30671   0.35170   0.36068

 Mulliken charges:
               1
     1  C   -0.397078
     2  C    0.176995
     3  O   -0.454323
     4  C   -0.086466
     5  C   -0.061714
     6  C   -0.333047
     7  H    0.138297
     8  H    0.143009
     9  H    0.129441
    10  H    0.163400
    11  H    0.141289
    12  H    0.146981
    13  H    0.150839
    14  H    0.142377
 Sum of Mulliken charges =  -0.00000

 Dipole moment (field-independent basis, Debye):
    X=              1.6422    Y=              0.4466    Z=              0.6135  Tot=              1.8091
 Quadrupole moment (field-independent basis, Debye-Ang):
   XX=            -36.5777   YY=            -36.2363   ZZ=            -35.8567
   XY=             -0.6623   XZ=              0.2391   YZ=              0.6927

  Exact polarizability:  76.553   3.114  48.567   7.874   4.409  42.692
 Approx polarizability:  99.205   6.100  71.050  15.386   9.669  61.185

                      1                      2                      3
                      A                      A                      A
 Frequencies --     39.0331                88.1230               116.8497
 Red. masses --      2.0271                 2.8577                 2.2212
 Frc consts  --      0.0018                 0.0131                 0.0179
 IR Inten    --      0.5715                 0.8080                 3.0767

                      4                      5                      6
                      A                      A                      A
 Frequencies --    286.5777               344.6327               418.8791
 Red. masses --      2.7149                 2.2964                 2.2835
 Frc consts  --      0.1314                 0.1607                 0.2361
 IR Inten    --      3.3723                 4.6169                 1.5951

                      7                      8                      9
                      A                      A                      A
 Frequencies --    526.4288               669.6701               703.3024
 Red. masses --      2.1397                 1.7263                 1.5178
 Frc consts  --      0.3494                 0.4561                 0.4423
 IR Inten    --      0.2031                10.9227                 1.8139

                     10                     11                     12
                      A                      A                      A
 Frequencies --    831.2771               888.0497               934.8863
 Red. masses --      1.4288                 2.2202                 1.5671
 Frc consts  --      0.5817                 1.0316                 0.8070
 IR Inten    --     51.3115                 4.5331                 3.7983

                     13                     14                     15
                      A                      A                      A
 Frequencies --    958.1437               979.5700               997.4491
 Red. masses --      1.3409                 1.1084                 1.7252
 Frc consts  --      0.7253                 0.6266                 1.0113
 IR Inten    --     39.1211                19.3982                 1.1455

                     16                     17                     18
                      A                      A                      A
 Frequencies --   1039.3846              1106.5799              1164.0571
 Red. masses --      1.1637                 3.7484                 2.0188
 Frc consts  --      0.7407                 2.7043                 1.6117
 IR Inten    --     23.4477               109.7585                89.0184

                     19                     20                     21
                      A                      A                      A
 Frequencies --   1211.2728              1312.9416              1328.7851
 Red. masses --      2.3546                 1.2933                 1.2575
 Frc consts  --      2.0354                 1.3135                 1.3081
 IR Inten    --    143.0427                54.2068                12.7336

                     22                     23                     24
                      A                      A                      A
 Frequencies --   1360.9268              1401.4297              1454.2721
 Red. masses --      1.1865                 1.2276                 1.2033
 Frc consts  --      1.2947                 1.4205                 1.4994
 IR Inten    --     15.0985                14.8634                10.1818

                     25                     26                     27
                      A                      A                      A
 Frequencies --   1479.0117              1520.4815              1730.4611
 Red. masses --      1.2061                 1.0991                 4.4783
 Frc consts  --      1.5544                 1.4972                 7.9011
 IR Inten    --     10.5331                 4.7822                38.9733

                     28                     29                     30
                      A                      A                      A
 Frequencies --   1735.9250              3026.6061              3093.8938
 Red. masses --      4.4267                 1.0659                 1.0983
 Frc consts  --      7.8595                 5.7529                 6.1941
 IR Inten    --    117.5501                48.9977                22.4964

                     31                     32                     33
                      A                      A                      A
 Frequencies --   3155.2718              3160.5851              3169.4405
 Red. masses --      1.0593                 1.0849                 1.0929
 Frc consts  --      6.2136                 6.3850                 6.4682
 IR Inten    --     10.2507                17.5374                 5.9896

                     34                     35                     36
                      A                      A                      A
 Frequencies --   3190.7347              3238.4969              3276.8967
 Red. masses --      1.0664                 1.1152                 1.1176
 Frc consts  --      6.3965                 6.8911                 7.0710
 IR Inten    --      0.3461                16.5069                 8.7289

 - Thermochemistry -
 -------------------
 Temperature   298.150 Kelvin.  Pressure   1.00000 Atm.
 Atom     1 has atomic number  6 and mass  12.00000

 Molecular mass:    84.05751 amu.
 Principal axes and moments of inertia in atomic units:
                           1         2         3
     Eigenvalues --   204.95633 967.367511085.32496
           X            0.99998  -0.00376   0.00515
           Y            0.00369   0.99991   0.01300
           Z           -0.00520  -0.01298   0.99990
 This molecule is an asymmetric top.
 Rotational symmetry number  1.
 Rotational temperatures (Kelvin)      0.42260     0.08954     0.07980
 Rotational constants (GHZ):           8.80549     1.86562     1.66286
 Zero-point vibrational energy     310672.1 (Joules/Mol)
                                   74.25242 (Kcal/Mol)
 Warning -- explicit consideration of   7 degrees of freedom as
           vibrations may cause significant error
 Vibrational temperatures:     56.16   126.79   168.12   412.32   495.85
          (Kelvin)            602.67   757.41   963.51  1011.90  1196.02
                             1277.71  1345.09  1378.56  1409.38  1435.11
                             1495.44  1592.12  1674.82  1742.75  1889.03
                             1911.83  1958.07  2016.34  2092.37  2127.97
                             2187.63  2489.75  2497.61  4354.61  4451.42
                             4539.73  4547.38  4560.12  4590.76  4659.47
                             4714.72

 Zero-point correction=                           0.118329 (Hartree/Particle)
 Thermal correction to Energy=                    0.125459
 Thermal correction to Enthalpy=                  0.126403
 Thermal correction to Gibbs Free Energy=         0.086411
 Sum of electronic and zero-point Energies=           -270.386416
 Sum of electronic and thermal Energies=              -270.379286
 Sum of electronic and thermal Enthalpies=            -270.378342
 Sum of electronic and thermal Free Energies=         -270.418334

                     E (Thermal)             CV                S
                      KCal/Mol        Cal/Mol-Kelvin    Cal/Mol-Kelvin
 Total                   78.727             24.073             84.172
 Electronic               0.000              0.000              0.000
 Translational            0.889              2.981             39.200
 Rotational               0.889              2.981             26.867
 Vibrational             76.949             18.112             18.104
 Vibration     1          0.594              1.981              5.308
 Vibration     2          0.601              1.958              3.701
 Vibration     3          0.608              1.935              3.152
 Vibration     4          0.684              1.699              1.494
 Vibration     5          0.723              1.586              1.191
 Vibration     6          0.782              1.429              0.896
 Vibration     7          0.881              1.191              0.595

 Optimization completed.
    -- Stationary point found.
 Normal termination of Gaussian 16 at Mon May  7 11:50:40 2018.
