 Gaussian 16, Revision B.01,
 Gaussian 16:  ES64L-G16RevB.01 20-Dec-2017

 ----------------------------------------------------------------------
 # irc(calcfc,forward,maxpoints=200,maxcycles=200,update=5) b3lyp/6-31g
 (d)
 ----------------------------------------------------------------------

 --------------------------------------
 claisen_ts_IRCFcreated by GaussianPrep
 --------------------------------------
 Symbolic Z-matrix:
 Charge =  0 Multiplicity = 1

 SCF Done:  E(RB3LYP) =  -270.461121387     A.U. after   14 cycles
 SCF Done:  E(RB3LYP) =  -270.461512906     A.U. after   13 cycles
 SCF Done:  E(RB3LYP) =  -270.462672883     A.U. after   13 cycles
 SCF Done:  E(RB3LYP) =  -270.464543637     A.U. after   12 cycles
 SCF Done:  E(RB3LYP) =  -270.467011376     A.U. after   12 cycles
 SCF Done:  E(RB3LYP) =  -270.469909304     A.U. after   12 cycles
 SCF Done:  E(RB3LYP) =  -270.473017933     A.U. after   12 cycles
 SCF Done:  E(RB3LYP) =  -270.476082530     A.U. after   12 cycles
 SCF Done:  E(RB3LYP) =  -270.478878079     A.U. after   12 cycles
 SCF Done:  E(RB3LYP) =  -270.481280918     A.U. after   12 cycles
 SCF Done:  E(RB3LYP) =  -270.504382007     A.U. after    9 cycles
 SCF Done:  E(RB3LYP) =  -270.504382121     A.U. after    9 cycles
 SCF Done:  E(RB3LYP) =  -270.504382276     A.U. after    9 cycles
 SCF Done:  E(RB3LYP) =  -270.504464253     A.U. after   11 cycles
 SCF Done:  E(RB3LYP) =  -270.504466403     A.U. after    9 cycles
 SCF Done:  E(RB3LYP) =  -270.504536921     A.U. after   11 cycles
 SCF Done:  E(RB3LYP) =  -270.504594071     A.U. after   11 cycles
 SCF Done:  E(RB3LYP) =  -270.504641284     A.U. after   11 cycles
 SCF Done:  E(RB3LYP) =  -270.504643425     A.U. after    9 cycles
 SCF Done:  E(RB3LYP) =  -270.504643828     A.U. after    8 cycles

                          Input orientation:
 ---------------------------------------------------------------------
 Center     Atomic      Atomic             Coordinates (Angstroms)
 Number     Number       Type             X           Y           Z
 ---------------------------------------------------------------------
      1          6           0       -2.572537   -0.077231   -0.449113
      2          6           0       -1.394157   -0.198106    0.160850
      3          8           0       -0.381711   -0.962221   -0.344963
      4          6           0        0.910901   -0.731308    0.227449
      5          6           0        1.510527    0.572649   -0.219342
      6          6           0        1.975212    1.507482    0.609128
      7          1           0       -3.365400    0.497268    0.015265
      8          1           0       -2.769404   -0.553723   -1.404061
      9          1           0       -1.179697    0.283925    1.115679
     10          1           0        1.515791   -1.577048   -0.117397
     11          1           0        0.856783   -0.777711    1.325374
     12          1           0        1.548897    0.722950   -1.297821
     13          1           0        2.416087    2.430661    0.243185
     14          1           0        1.939969    1.382440    1.689878
 ---------------------------------------------------------------------

 Alpha  occ. eigenvalues --  -19.16963 -10.24610 -10.23249 -10.19747 -10.19286
 Alpha  occ. eigenvalues --  -10.16165  -1.05373  -0.79654  -0.74819  -0.67843
 Alpha  occ. eigenvalues --   -0.58051  -0.56851  -0.51003  -0.47746  -0.45816
 Alpha  occ. eigenvalues --   -0.43805  -0.40688  -0.38239  -0.37822  -0.33670
 Alpha  occ. eigenvalues --   -0.32410  -0.27236  -0.21840
 Alpha virt. eigenvalues --    0.00376   0.04127   0.10305   0.11520   0.13141
 Alpha virt. eigenvalues --    0.14306   0.15535   0.17071   0.17931   0.18829
 Alpha virt. eigenvalues --    0.20629   0.28817   0.30978   0.35116   0.36194

 Mulliken charges:
               1
     1  C   -0.393124
     2  C    0.177714
     3  O   -0.452659
     4  C   -0.088407
     5  C   -0.056774
     6  C   -0.332864
     7  H    0.138460
     8  H    0.143263
     9  H    0.125128
    10  H    0.162128
    11  H    0.139275
    12  H    0.146022
    13  H    0.150410
    14  H    0.141429
 Sum of Mulliken charges =  -0.00000

 Dipole moment (field-independent basis, Debye):
    X=              1.2723    Y=              0.7006    Z=              0.9534  Tot=              1.7374
 Quadrupole moment (field-independent basis, Debye-Ang):
   XX=            -36.1544   YY=            -37.3807   ZZ=            -34.9151
   XY=             -0.8126   XZ=             -0.2540   YZ=              0.2157

  Exact polarizability:   0.000   0.000   0.000   0.000   0.000   0.000
 Approx polarizability:  86.348   3.965  69.599  17.101  14.951  75.279

 Normal termination of Gaussian 16 at Thu Jan 13 13:30:42 2022.
