 Q-Chem 5.4, Q-Chem, Inc., Pleasanton, CA (2021)
 Q-Chem 5.4.0 for Intel X86 EM64T Linux

User input:
--------------------------------------------------------------

$molecule
0 1
H  -0.33870204  -1.51510269  -0.12358792
C  -0.23894259  -0.40902705  -0.02790613
C   1.16805249   0.13477056   0.00810061
O  -1.22119751   0.28573209   0.02250157
H   1.91392009  -0.65959774   0.15359673
H   1.25074983   0.89288450   0.80419904
H   1.36895283   0.64149811  -0.95418733
$end

$rem
JOBTYPE opt
METHOD B3LYP
BASIS def2-TZVP
$end

--------------------------------------------------------------

   12    -153.8965749359      5.49e-09  Convergence criterion met
 Total energy in the final basis set =     -153.8965749359
   10    -153.8968510114      8.45e-09  Convergence criterion met
 Total energy in the final basis set =     -153.8968510114
   11    -153.8963022469      1.87e-09  Convergence criterion met
 Total energy in the final basis set =     -153.8963022469
   11    -153.8970387287      2.11e-09  Convergence criterion met
 Total energy in the final basis set =     -153.8970387287
   10    -153.8972356158      6.40e-09  Convergence criterion met
 Total energy in the final basis set =     -153.8972356158
   11    -153.8975474097      2.18e-09  Convergence criterion met
 Total energy in the final basis set =     -153.8975474097
   11    -153.8977750291      5.36e-09  Convergence criterion met
 Total energy in the final basis set =     -153.8977750291
   11    -153.8973384815      3.71e-09  Convergence criterion met
   10    -153.8980413701      7.19e-09  Convergence criterion met
 Total energy in the final basis set =     -153.8980413701
   10    -153.8980588257      5.26e-09  Convergence criterion met
 Total energy in the final basis set =     -153.8980588257
    9    -153.8980905284      3.98e-09  Convergence criterion met
 Total energy in the final basis set =     -153.8980905284
   11    -153.8984712970      2.75e-09  Convergence criterion met
 Total energy in the final basis set =     -153.8984712970
   10    -153.8984838716      7.32e-09  Convergence criterion met
 Total energy in the final basis set =     -153.8984838716
    8    -153.8984850430      5.45e-09  Convergence criterion met
 Total energy in the final basis set =     -153.8984850430
 Final energy is   -153.898485042950
 **  OPTIMIZATION CONVERGED  **
 Total job time:  19.57s(wall), 437.79s(cpu)
        *  Thank you very much for using Q-Chem.  Have a nice day.  *
 Q-Chem 5.4, Q-Chem, Inc., Pleasanton, CA (2021)
 Q-Chem 5.4.0 for Intel X86 EM64T Linux

User input:
--------------------------------------------------------------

$molecule
read
$end

$rem
JOBTYPE freq
METHOD B3LYP
BASIS def2-TZVP
$end
--------------------------------------------------------------

             Standard Nuclear Orientation (Angstroms)
    I     Atom           X                Y                Z
 ----------------------------------------------------------------
    1      H      -0.3060840157    -1.5052787786     0.0003485505
    2      C      -0.2333405762    -0.3959447967    -0.0002966062
    3      C       1.1655276758     0.1482290860    -0.0002612201
    4      O      -1.2314254828     0.2758392930     0.0000568454
    5      H       1.6971587845    -0.2156040873     0.8842567047
    6      H       1.1601513967     1.2364128410    -0.0118611906
    7      H       1.7070550993    -0.2359500551    -0.8698518703
 ----------------------------------------------------------------

   12    -153.8984834430      4.94e-09  Convergence criterion met
 Total energy in the final basis set =     -153.8984834430

                    Orbital Energies (a.u.)
 --------------------------------------------------------------

 Alpha MOs
 -- Occupied --
-19.1320 -10.2696 -10.1871  -1.0589  -0.7623  -0.5882  -0.4880  -0.4543
 -0.4467  -0.4077  -0.3764  -0.2675

          Ground-State Mulliken Net Atomic Charges

     Atom                 Charge (a.u.)
  ----------------------------------------
      1 H                     0.054372
      2 C                     0.121384
      3 C                    -0.271659
      4 O                    -0.260487
      5 H                     0.119599
      6 H                     0.117620
      7 H                     0.119171
  ----------------------------------------
  Sum of atomic charges =     0.000000

                    Cartesian Multipole Moments
 -----------------------------------------------------------------
    Charge (ESU x 10^10)
                -0.0000
    Dipole Moment (Debye)
         X       2.5738      Y      -1.1251      Z       0.0024
       Tot       2.8090
    Quadrupole Moments (Debye-Ang)
        XX     -21.1418     XY       0.9852     YY     -18.1984
        XZ       0.0042     YZ       0.0004     ZZ     -17.9927

 Frequency:       154.18                 509.20                 773.67
 Force Cnst:      0.0174                 0.3874                 0.3958
 Red. Mass:       1.2397                 2.5357                 1.1224
 IR Intens:        0.859                 13.292                  0.825
 Frequency:       886.06                1129.65                1136.65
 Force Cnst:      1.0014                 1.5802                 1.3545
 Red. Mass:       2.1648                 2.1017                 1.7794
 IR Intens:        9.711                 25.568                  0.289
 Frequency:      1378.02                1427.28                1459.99
 Force Cnst:      1.4041                 1.4337                 1.3326
 Red. Mass:       1.2550                 1.1945                 1.0610
 IR Intens:       25.834                  9.314                 21.834
 Frequency:      1469.08                1812.01                2869.13
 Force Cnst:      1.3319                17.9195                 5.2484
 Red. Mass:       1.0475                 9.2630                 1.0821
 IR Intens:       10.393                188.239                125.453
 Frequency:      3026.41                3078.39                3140.30
 Force Cnst:      5.5965                 6.1304                 6.4028
 Red. Mass:       1.0371                 1.0980                 1.1020
 IR Intens:        2.226                  6.978                  9.514

 STANDARD THERMODYNAMIC QUANTITIES AT   298.15 K  AND     1.00 ATM

   This Molecule has  0 Imaginary Frequencies
   Zero point vibrational energy:       34.667 kcal/mol

   Atom    1 Element H  Has Mass    1.00783
   Atom    2 Element C  Has Mass   12.00000
   Atom    3 Element C  Has Mass   12.00000
   Atom    4 Element O  Has Mass   15.99491
   Atom    5 Element H  Has Mass    1.00783
   Atom    6 Element H  Has Mass    1.00783
   Atom    7 Element H  Has Mass    1.00783
   Molecular Mass:    44.026230 amu
   Principal axes and moments of inertia in amu*Bohr^2:
                             1           2           3
    Eigenvalues --       31.43075   177.38796   197.74310
          X               0.99967     0.02564     0.00005
          Y              -0.02564     0.99967    -0.00010
          Z              -0.00005     0.00010     1.00000
   Rotational Symmetry Number is   1
   The Molecule is an Asymmetric Top
   Translational Enthalpy:        0.889 kcal/mol
   Rotational Enthalpy:           0.889 kcal/mol
   Vibrational Enthalpy:         35.337 kcal/mol
   gas constant (RT):             0.592 kcal/mol
   Translational Entropy:        37.272  cal/mol.K
   Rotational Entropy:           21.627  cal/mol.K
   Vibrational Entropy:           3.808  cal/mol.K

   Total Enthalpy:               37.707 kcal/mol
   Total Entropy:                62.707  cal/mol.K
 Total job time:  6.89s(wall), 158.76s(cpu)
        *  Thank you very much for using Q-Chem.  Have a nice day.  *
