 Q-Chem 5.4, Q-Chem, Inc., Pleasanton, CA (2021)
 Q-Chem 5.4.0 for Intel X86 EM64T Linux

User input:
--------------------------------------------------------------
$molecule
0 1
H           1.02598         0.12223         0.06942
C           2.12749         0.06671         0.05614
C           2.85038         1.34175         0.36112
O           2.70357        -0.98671        -0.19583
H           2.11900         2.13190         0.55012
H           3.46686         1.62591        -0.49461
H           3.46687         1.20794         1.25280
$end

$rem
JOBTYPE       opt
METHOD        b3lyp
BASIS         def2-tzvp
$end

--------------------------------------------------------------

   12    -153.8952529368      5.59e-09  Convergence criterion met
 Total energy in the final basis set =     -153.8952529368
   10    -153.8965341765      2.38e-09  Convergence criterion met
 Total energy in the final basis set =     -153.8965341765
    9    -153.8966011460      3.30e-09  Convergence criterion met
 Total energy in the final basis set =     -153.8966011460
    7    -153.8966029420      9.97e-09  Convergence criterion met
 Total energy in the final basis set =     -153.8966029420
 Final energy is   -153.896602942043
 **  OPTIMIZATION CONVERGED  **
 Total job time:  5.05s(wall), 112.84s(cpu)
        *  Thank you very much for using Q-Chem.  Have a nice day.  *
 Q-Chem 5.4, Q-Chem, Inc., Pleasanton, CA (2021)
 Q-Chem 5.4.0 for Intel X86 EM64T Linux

User input:
--------------------------------------------------------------

$molecule
read
$end

$rem
JOBTYPE    freq
METHOD        b3lyp
BASIS         def2-tzvp
$end
--------------------------------------------------------------

             Standard Nuclear Orientation (Angstroms)
    I     Atom           X                Y                Z
 ----------------------------------------------------------------
    1      H      -0.3387020393    -1.5151026933     0.0000120770
    2      C      -0.2389425931    -0.4090270532    -0.0000061259
    3      C       1.1680524883     0.1347705629     0.0000006052
    4      O      -1.2211975089     0.2857320945     0.0000015748
    5      H       1.9139200862    -0.6595977353    -0.0000032679
    6      H       1.3098498253     0.7671845002     0.8791990429
    7      H       1.3098528282     0.7671981139    -0.8791873268
 ----------------------------------------------------------------

   12    -153.8966025033      5.30e-09  Convergence criterion met
 Total energy in the final basis set =     -153.8966025033

                    Orbital Energies (a.u.)
 --------------------------------------------------------------

 Alpha MOs
 -- Occupied --
-19.1317 -10.2701 -10.1859  -1.0591  -0.7590  -0.5893  -0.4872  -0.4540
 -0.4465  -0.4074  -0.3739  -0.2675

          Ground-State Mulliken Net Atomic Charges

     Atom                 Charge (a.u.)
  ----------------------------------------
      1 H                     0.069106
      2 C                     0.111505
      3 C                    -0.277717
      4 O                    -0.266027
      5 H                     0.100933
      6 H                     0.131101
      7 H                     0.131100
  ----------------------------------------
  Sum of atomic charges =     0.000000

                    Cartesian Multipole Moments
 -----------------------------------------------------------------
    Charge (ESU x 10^10)
                -0.0000
    Dipole Moment (Debye)
         X       2.4896      Y      -1.0579      Z       0.0000
       Tot       2.7050
    Quadrupole Moments (Debye-Ang)
        XX     -21.2428     XY       1.1884     YY     -18.1349
        XZ       0.0000     YZ      -0.0000     ZZ     -17.9324

 Frequency:      -188.22                 511.33                 750.64
 Force Cnst:      0.0249                 0.4141                 0.3905
 Red. Mass:       1.1940                 2.6884                 1.1763
 IR Intens:        6.659                 12.382                  1.569
 Frequency:       927.45                1096.53                1134.93
 Force Cnst:      1.1754                 1.3927                 1.3055
 Red. Mass:       2.3192                 1.9659                 1.7202
 IR Intens:       13.277                 40.545                  0.353
 Frequency:      1375.48                1428.83                1466.41
 Force Cnst:      1.3436                 1.4420                 1.3466
 Red. Mass:       1.2053                 1.1988                 1.0629
 IR Intens:       15.022                 15.382                 13.530
 Frequency:      1474.84                1806.54                2877.91
 Force Cnst:      1.3418                19.2476                 5.2837
 Red. Mass:       1.0470                10.0100                 1.0828
 IR Intens:        8.444                178.066                127.653
 Frequency:      3039.77                3102.42                3126.29
 Force Cnst:      5.6335                 6.2339                 6.3555
 Red. Mass:       1.0348                 1.0993                 1.1037
 IR Intens:        1.587                  3.655                 17.474

 STANDARD THERMODYNAMIC QUANTITIES AT   298.15 K  AND     1.00 ATM

   This Molecule has  1 Imaginary Frequencies
   Zero point vibrational energy:       34.480 kcal/mol

   Atom    1 Element H  Has Mass    1.00783
   Atom    2 Element C  Has Mass   12.00000
   Atom    3 Element C  Has Mass   12.00000
   Atom    4 Element O  Has Mass   15.99491
   Atom    5 Element H  Has Mass    1.00783
   Atom    6 Element H  Has Mass    1.00783
   Atom    7 Element H  Has Mass    1.00783
   Molecular Mass:    44.026230 amu
   Principal axes and moments of inertia in amu*Bohr^2:
                             1           2           3
    Eigenvalues --       32.08152   176.32972   197.28333
          X               0.99957     0.02945     0.00000
          Y              -0.02945     0.99957    -0.00000
          Z              -0.00000     0.00000     1.00000
   Rotational Symmetry Number is   1
   The Molecule is an Asymmetric Top
   Translational Enthalpy:        0.889 kcal/mol
   Rotational Enthalpy:           0.889 kcal/mol
   Vibrational Enthalpy:         34.752 kcal/mol
   gas constant (RT):             0.592 kcal/mol
   Translational Entropy:        37.272  cal/mol.K
   Rotational Entropy:           21.639  cal/mol.K
   Vibrational Entropy:           1.190  cal/mol.K

   Total Enthalpy:               37.122 kcal/mol
   Total Entropy:                60.101  cal/mol.K
 Total job time:  7.02s(wall), 161.50s(cpu)
        *  Thank you very much for using Q-Chem.  Have a nice day.  *
