                         Program Version 5.0.1 -  RELEASE  -
|  1> ! pal8 B3LYP def2-tzvp D3BJ  Opt Freq
|  2> * xyz 0 1
|  3> H          0.337850    1.515009    0.000024
|  4> C          0.238586    0.408994   -0.000012
|  5> C         -1.167631   -0.134957    0.000001
|  6> O          1.220903   -0.285563    0.000003
|  7> H         -1.913113    0.659514    0.000004
|  8> H         -1.308837   -0.767116    0.879244
|  9> H         -1.308850   -0.767124   -0.879233
| 10> *
| 11>
| 12>                          ****END OF INPUT****
 Total Charge           Charge          ....    0
 Multiplicity           Mult            ....    1
 Number of Electrons    NEL             ....   24
Dispersion correction           -0.005384841
FINAL SINGLE POINT ENERGY      -153.813687644210
Dispersion correction            ... done
                    ***********************HURRAY********************

CARTESIAN COORDINATES (ANGSTROEM)
---------------------------------
  H      0.337904    1.515355   -0.000012
  C      0.238749    0.409018    0.000056
  C     -1.167784   -0.135043    0.000013
  O      1.221281   -0.285618   -0.000035
  H     -1.913168    0.659733    0.000001
  H     -1.309059   -0.767350    0.879452
  H     -1.309016   -0.767337   -0.879443

 Multiplicity           Mult            ....    1
 Number of Electrons    NEL             ....   24
 Basis Dimension        Dim             ....  117

ORBITAL ENERGIES
----------------

  NO   OCC          E(Eh)            E(eV)
   0   2.0000     -19.128184      -520.5043
   1   2.0000     -10.266365      -279.3620
   2   2.0000     -10.182274      -277.0738
   3   2.0000      -1.055612       -28.7247
   4   2.0000      -0.755694       -20.5635
   5   2.0000      -0.585817       -15.9409
   6   2.0000      -0.483763       -13.1639
   7   2.0000      -0.450647       -12.2627
   8   2.0000      -0.443018       -12.0551
   9   2.0000      -0.403964       -10.9924
  10   2.0000      -0.370419       -10.0796
  11   2.0000      -0.264100        -7.1865
  12   0.0000      -0.039651        -1.0790
  13   0.0000       0.044571         1.2128
  14   0.0000       0.067407         1.8342
  15   0.0000       0.110778         3.0144
  16   0.0000       0.115674         3.1477

MULLIKEN ATOMIC CHARGES
-----------------------
   0 H :    0.067807
   1 C :    0.113823
   2 C :   -0.273740
   3 O :   -0.266585
   4 H :    0.099451
   5 H :    0.129620
   6 H :    0.129625
Sum of atomic charges:   -0.0000000

LOEWDIN ATOMIC CHARGES
----------------------
   0 H :    0.102660
   1 C :   -0.316849
   2 C :   -0.296520
   3 O :    0.114863
   4 H :    0.120275
   5 H :    0.137785
   6 H :    0.137786

  Mayer bond orders larger than 0.100000
B(  0-H ,  1-C ) :   0.9588 B(  1-C ,  2-C ) :   0.9216 B(  1-C ,  3-O ) :   2.1079
B(  2-C ,  4-H ) :   0.9610 B(  2-C ,  5-H ) :   0.9498 B(  2-C ,  6-H ) :   0.9498

Dispersion correction           -0.005384379
FINAL SINGLE POINT ENERGY      -153.813688025749

DIPOLE MOMENT
-------------
                                X             Y             Z
Electronic contribution:      3.29212      -0.23538       0.00006
Nuclear contribution   :     -4.27127       0.65075      -0.00002
                        -----------------------------------------
Total Dipole Moment    :     -0.97915       0.41537       0.00004
                        -----------------------------------------
Magnitude (a.u.)       :      1.06361
Magnitude (Debye)      :      2.70348

Dispersion correction in the Hessian             ... done   (      0.2 sec)

VIBRATIONAL FREQUENCIES
-----------------------

Scaling factor for frequencies =  1.000000000  (already applied!)

   0:         0.00 cm**-1
   1:         0.00 cm**-1
   2:         0.00 cm**-1
   3:         0.00 cm**-1
   4:         0.00 cm**-1
   5:         0.00 cm**-1
   6:      -175.69 cm**-1 ***imaginary mode***
   7:       512.76 cm**-1
   8:       750.68 cm**-1
   9:       928.94 cm**-1
  10:      1097.69 cm**-1
  11:      1135.76 cm**-1
  12:      1373.37 cm**-1
  13:      1427.49 cm**-1
  14:      1466.30 cm**-1
  15:      1474.70 cm**-1
  16:      1806.58 cm**-1
  17:      2870.44 cm**-1
  18:      3036.18 cm**-1
  19:      3098.55 cm**-1
  20:      3123.33 cm**-1

IR SPECTRUM
-----------

 Mode   freq       eps      Int      T**2         TX        TY        TZ
       cm**-1   L/(mol*cm) km/mol    a.u.
----------------------------------------------------------------------------
  7:    512.76   0.002454   12.40  0.001493  (-0.028779 -0.025792  0.000005)
  8:    750.68   0.000304    1.54  0.000126  ( 0.000011  0.000003 -0.011241)
  9:    928.94   0.002625   13.27  0.000882  ( 0.022305  0.019604  0.000000)
 10:   1097.69   0.008018   40.52  0.002279  (-0.041846 -0.022986 -0.000005)
 11:   1135.76   0.000067    0.34  0.000018  ( 0.000009  0.000006 -0.004278)
 12:   1373.37   0.003011   15.22  0.000684  ( 0.022288  0.013690 -0.000005)
 13:   1427.49   0.003043   15.38  0.000665  ( 0.015658  0.020497  0.000000)
 14:   1466.30   0.002679   13.54  0.000570  (-0.014937  0.018628  0.000007)
 15:   1474.70   0.001678    8.48  0.000355  (-0.000006  0.000002 -0.018843)
 16:   1806.58   0.035190  177.84  0.006079  ( 0.071713 -0.030593 -0.000002)
 17:   2870.44   0.025399  128.36  0.002761  ( 0.009407  0.051699  0.000001)
 18:   3036.18   0.000311    1.57  0.000032  (-0.005247  0.002097 -0.000000)
 19:   3098.55   0.000744    3.76  0.000075  (-0.000001 -0.000005  0.008659)
 20:   3123.33   0.003469   17.53  0.000347  ( 0.012906 -0.013417 -0.000001)

--------------------------
THERMOCHEMISTRY AT 298.15K
--------------------------

Temperature         ... 298.15 K
Pressure            ... 1.00 atm
Total Mass          ... 44.05 AMU

Throughout the following assumptions are being made:
  (1) The electronic state is orbitally nondegenerate
  (2) There are no thermally accessible electronically excited states
  (3) Hindered rotations indicated by low frequency modes are not
      treated as such but are treated as vibrations and this may
      cause some error
  (4) All equations used are the standard statistical mechanics
      equations for an ideal gas
  (5) All vibrations are strictly harmonic

freq.     512.76  E(vib)   ...       0.13
freq.     750.68  E(vib)   ...       0.06
freq.     928.94  E(vib)   ...       0.03
freq.    1097.69  E(vib)   ...       0.02
freq.    1135.76  E(vib)   ...       0.01
freq.    1373.37  E(vib)   ...       0.01
freq.    1427.49  E(vib)   ...       0.00
freq.    1466.30  E(vib)   ...       0.00
freq.    1474.70  E(vib)   ...       0.00
freq.    1806.58  E(vib)   ...       0.00
freq.    2870.44  E(vib)   ...       0.00
freq.    3036.18  E(vib)   ...       0.00
freq.    3098.55  E(vib)   ...       0.00
freq.    3123.33  E(vib)   ...       0.00

------------
INNER ENERGY
------------

The inner energy is: U= E(el) + E(ZPE) + E(vib) + E(rot) + E(trans)
    E(el)   - is the total energy from the electronic structure calculation
              = E(kin-el) + E(nuc-el) + E(el-el) + E(nuc-nuc)
    E(ZPE)  - the the zero temperature vibrational energy from the frequency calculation
    E(vib)  - the the finite temperature correction to E(ZPE) due to population
              of excited vibrational states
    E(rot)  - is the rotational thermal energy
    E(trans)- is the translational thermal energy

Summary of contributions to the inner energy U:
Electronic energy                ...   -153.81368803 Eh
Zero point energy                ...      0.05491014 Eh      34.46 kcal/mol
Thermal vibrational correction   ...      0.00043137 Eh       0.27 kcal/mol
Thermal rotational correction    ...      0.00141627 Eh       0.89 kcal/mol
Thermal translational correction ...      0.00141627 Eh       0.89 kcal/mol
-----------------------------------------------------------------------
Total thermal energy                   -153.75551397 Eh

Summary of corrections to the electronic energy:
(perhaps to be used in another calculation)
Total thermal correction                  0.00326391 Eh       2.05 kcal/mol
Non-thermal (ZPE) correction              0.05491014 Eh      34.46 kcal/mol
-----------------------------------------------------------------------
Total correction                          0.05817405 Eh      36.50 kcal/mol

--------
ENTHALPY
--------

The enthalpy is H = U + kB*T
                kB is Boltzmann's constant
Total free energy                 ...   -153.75551397 Eh
Thermal Enthalpy correction       ...      0.00094421 Eh       0.59 kcal/mol
-----------------------------------------------------------------------
Total Enthalpy                    ...   -153.75456976 Eh

Note: Rotational entropy computed according to Herzberg
Infrared and Raman Spectra, Chapter V,1, Van Nostrand Reinhold, 1945
Point Group:  Cs, Symmetry Number:   1
Rotational constants in cm-1:     1.875286     0.341326     0.305062

Vibrational entropy computed according to the QRRHO of S. Grimme
Chem.Eur.J. 2012 18 9955

-------
ENTROPY
-------

The entropy contributions are T*S = T*(S(el)+S(vib)+S(rot)+S(trans))
     S(el)   - electronic entropy
     S(vib)  - vibrational entropy
     S(rot)  - rotational entropy
     S(trans)- translational entropy
The entropies will be listed as multiplied by the temperature to get
units of energy

Electronic entropy                ...      0.00000000 Eh      0.00 kcal/mol
Vibrational entropy               ...      0.00056391 Eh      0.35 kcal/mol
Rotational entropy                ...      0.01028192 Eh      6.45 kcal/mol
Translational entropy             ...      0.01771022 Eh     11.11 kcal/mol
-----------------------------------------------------------------------
Final entropy term                ...      0.02855604 Eh     17.92 kcal/mol

In case the symmetry of your molecule has not been determined correctly
or in case you have a reason to use a different symmetry number we print
out the resulting rotational entropy values for sn=1,12 :
 --------------------------------------------------------
|  sn= 1 | S(rot)=       0.01028192 Eh      6.45 kcal/mol|
|  sn= 2 | S(rot)=       0.00962746 Eh      6.04 kcal/mol|
|  sn= 3 | S(rot)=       0.00924463 Eh      5.80 kcal/mol|
|  sn= 4 | S(rot)=       0.00897301 Eh      5.63 kcal/mol|
|  sn= 5 | S(rot)=       0.00876232 Eh      5.50 kcal/mol|
|  sn= 6 | S(rot)=       0.00859018 Eh      5.39 kcal/mol|
|  sn= 7 | S(rot)=       0.00844463 Eh      5.30 kcal/mol|
|  sn= 8 | S(rot)=       0.00831855 Eh      5.22 kcal/mol|
|  sn= 9 | S(rot)=       0.00820734 Eh      5.15 kcal/mol|
|  sn=10 | S(rot)=       0.00810786 Eh      5.09 kcal/mol|
|  sn=11 | S(rot)=       0.00801787 Eh      5.03 kcal/mol|
|  sn=12 | S(rot)=       0.00793572 Eh      4.98 kcal/mol|
 --------------------------------------------------------

-------------------
GIBBS FREE ENERGY
-------------------

The Gibbs free energy is G = H - T*S

Total enthalpy                    ...   -153.75456976 Eh
Total entropy correction          ...     -0.02855604 Eh    -17.92 kcal/mol
-----------------------------------------------------------------------
Final Gibbs free energy         ...   -153.78312581 Eh

For completeness - the Gibbs free energy minus the electronic energy
G-E(el)                           ...      0.03056222 Eh     19.18 kcal/mol

                             ****ORCA TERMINATED NORMALLY****
TOTAL RUN TIME: 0 days 0 hours 0 minutes 19 seconds 66 msec
