                         Program Version 5.0.1 -  RELEASE  -
|  1>
|  2> ! pal8 B3LYP def2-tzvp D3BJ  Opt Freq
|  3>
|  4> # acetaldehyde_QRC
|  5>
|  6> * xyz 0 1
|  7>  H   0.33790250   1.51535410  -0.12376920
|  8>  C   0.23874870   0.40902130  -0.02782630
|  9>  C  -1.16778430  -0.13504270   0.00820120
| 10>  O   1.22128130  -0.28562010   0.02235700
| 11>  H  -1.91317700   0.65972730   0.15322360
| 12>  H  -1.25080050  -0.89343340   0.80434940
| 13>  H  -1.36725980  -0.64125450  -0.95454620
| 14> *
| 15>
| 16>
| 17>                          ****END OF INPUT****
 Total Charge           Charge          ....    0
 Multiplicity           Mult            ....    1
 Number of Electrons    NEL             ....   24
Dispersion correction           -0.005380057
FINAL SINGLE POINT ENERGY      -153.813650961087
Dispersion correction            ... done
Dispersion correction           -0.005385384
FINAL SINGLE POINT ENERGY      -153.813923679838
Dispersion correction            ... done
Dispersion correction           -0.005387777
FINAL SINGLE POINT ENERGY      -153.813856445570
Dispersion correction            ... done
FINAL SINGLE POINT ENERGY      -153.814046624842
FINAL SINGLE POINT ENERGY      -153.814216877939
FINAL SINGLE POINT ENERGY      -153.814503167955
FINAL SINGLE POINT ENERGY      -153.814795352332
FINAL SINGLE POINT ENERGY      -153.815082906699
FINAL SINGLE POINT ENERGY      -153.815346103909
FINAL SINGLE POINT ENERGY      -153.815478344543
FINAL SINGLE POINT ENERGY      -153.815452636126
FINAL SINGLE POINT ENERGY      -153.815544731486
Dispersion correction           -0.005385667
FINAL SINGLE POINT ENERGY      -153.815550865988
Dispersion correction            ... done
Dispersion correction           -0.005385647
FINAL SINGLE POINT ENERGY      -153.815551787776
Dispersion correction            ... done
                    ***********************HURRAY********************

CARTESIAN COORDINATES (ANGSTROEM)
---------------------------------
  H      0.353581    1.339576   -0.606231
  C      0.239139    0.391919   -0.035975
  C     -1.156731   -0.157168    0.009019
  O      1.193219   -0.118651    0.490163
  H     -1.824155    0.582405    0.461767
  H     -1.189328   -1.086907    0.574192
  H     -1.516814   -0.322422   -1.010945

 Multiplicity           Mult            ....    1
 Number of Electrons    NEL             ....   24
 Basis Dimension        Dim             ....  117

ORBITAL ENERGIES
----------------

  NO   OCC          E(Eh)            E(eV)
   0   2.0000     -19.128443      -520.5114
   1   2.0000     -10.265888      -279.3490
   2   2.0000     -10.183338      -277.1027
   3   2.0000      -1.055395       -28.7188
   4   2.0000      -0.758823       -20.6486
   5   2.0000      -0.584781       -15.9127
   6   2.0000      -0.484579       -13.1861
   7   2.0000      -0.451031       -12.2732
   8   2.0000      -0.443149       -12.0587
   9   2.0000      -0.404135       -10.9971
  10   2.0000      -0.372941       -10.1482
  11   2.0000      -0.264114        -7.1869
  12   0.0000      -0.032495        -0.8842
  13   0.0000       0.041419         1.1271
  14   0.0000       0.074028         2.0144
  15   0.0000       0.096606         2.6288
  16   0.0000       0.104718         2.8495

MULLIKEN ATOMIC CHARGES
-----------------------
   0 H :    0.053331
   1 C :    0.122686
   2 C :   -0.266613
   3 O :   -0.261083
   4 H :    0.118033
   5 H :    0.116013
   6 H :    0.117634
Sum of atomic charges:    0.0000000

LOEWDIN ATOMIC CHARGES
----------------------
   0 H :    0.103396
   1 C :   -0.320758
   2 C :   -0.292581
   3 O :    0.114154
   4 H :    0.134512
   5 H :    0.127116
   6 H :    0.134162

  Mayer bond orders larger than 0.100000
B(  0-H ,  1-C ) :   0.9515 B(  1-C ,  2-C ) :   0.9377 B(  1-C ,  3-O ) :   2.1291
B(  2-C ,  4-H ) :   0.9436 B(  2-C ,  5-H ) :   0.9592 B(  2-C ,  6-H ) :   0.9440

Dispersion correction           -0.005385661
FINAL SINGLE POINT ENERGY      -153.815551836713

DIPOLE MOMENT
-------------
                                X             Y             Z
Electronic contribution:      3.25440      -0.04150       0.72421
Nuclear contribution   :     -4.23088       0.35622      -1.13091
                        -----------------------------------------
Total Dipole Moment    :     -0.97648       0.31472      -0.40670
                        -----------------------------------------
Magnitude (a.u.)       :      1.10362
Magnitude (Debye)      :      2.80517

Dispersion correction in the Hessian             ... done   (      0.2 sec)

VIBRATIONAL FREQUENCIES
-----------------------

Scaling factor for frequencies =  1.000000000  (already applied!)

   0:         0.00 cm**-1
   1:         0.00 cm**-1
   2:         0.00 cm**-1
   3:         0.00 cm**-1
   4:         0.00 cm**-1
   5:         0.00 cm**-1
   6:       158.97 cm**-1
   7:       511.43 cm**-1
   8:       775.55 cm**-1
   9:       888.08 cm**-1
  10:      1130.95 cm**-1
  11:      1136.76 cm**-1
  12:      1378.78 cm**-1
  13:      1423.94 cm**-1
  14:      1459.40 cm**-1
  15:      1468.82 cm**-1
  16:      1811.94 cm**-1
  17:      2862.13 cm**-1
  18:      3023.39 cm**-1
  19:      3075.57 cm**-1
  20:      3135.90 cm**-1

IR SPECTRUM
-----------

 Mode   freq       eps      Int      T**2         TX        TY        TZ
       cm**-1   L/(mol*cm) km/mol    a.u.
----------------------------------------------------------------------------
  6:    158.97   0.000170    0.86  0.000334  (-0.003605  0.009689  0.015065)
  7:    511.43   0.002648   13.38  0.001615  ( 0.031388  0.023747 -0.008145)
  8:    775.55   0.000162    0.82  0.000065  ( 0.001837 -0.004185 -0.006659)
  9:    888.08   0.001928    9.75  0.000678  (-0.023938 -0.010152  0.001235)
 10:   1130.95   0.004998   25.26  0.001379  (-0.030981 -0.019608  0.005901)
 11:   1136.76   0.000061    0.31  0.000017  ( 0.000330  0.002821  0.002933)
 12:   1378.78   0.005025   25.39  0.001137  ( 0.033160  0.004779  0.003865)
 13:   1423.94   0.001975    9.98  0.000433  (-0.016558 -0.011943  0.004000)
 14:   1459.40   0.004300   21.73  0.000919  ( 0.017204 -0.019078  0.016107)
 15:   1468.82   0.002038   10.30  0.000433  (-0.003998  0.011179  0.017091)
 16:   1811.94   0.037148  187.73  0.006398  ( 0.070962 -0.022423  0.029314)
 17:   2862.13   0.024932  126.00  0.002718  (-0.008989 -0.044328  0.025935)
 18:   3023.39   0.000438    2.21  0.000045  ( 0.005102 -0.003145  0.003046)
 19:   3075.57   0.001397    7.06  0.000142  (-0.001969  0.006105  0.010032)
 20:   3135.90   0.001919    9.70  0.000191  ( 0.001197  0.011811 -0.007072)

--------------------------
THERMOCHEMISTRY AT 298.15K
--------------------------

Temperature         ... 298.15 K
Pressure            ... 1.00 atm
Total Mass          ... 44.05 AMU

Throughout the following assumptions are being made:
  (1) The electronic state is orbitally nondegenerate
  (2) There are no thermally accessible electronically excited states
  (3) Hindered rotations indicated by low frequency modes are not
      treated as such but are treated as vibrations and this may
      cause some error
  (4) All equations used are the standard statistical mechanics
      equations for an ideal gas
  (5) All vibrations are strictly harmonic

freq.     158.97  E(vib)   ...       0.39
freq.     511.43  E(vib)   ...       0.14
freq.     775.55  E(vib)   ...       0.05
freq.     888.08  E(vib)   ...       0.04
freq.    1130.95  E(vib)   ...       0.01
freq.    1136.76  E(vib)   ...       0.01
freq.    1378.78  E(vib)   ...       0.01
freq.    1423.94  E(vib)   ...       0.00
freq.    1459.40  E(vib)   ...       0.00
freq.    1468.82  E(vib)   ...       0.00
freq.    1811.94  E(vib)   ...       0.00
freq.    2862.13  E(vib)   ...       0.00
freq.    3023.39  E(vib)   ...       0.00
freq.    3075.57  E(vib)   ...       0.00
freq.    3135.90  E(vib)   ...       0.00

------------
INNER ENERGY
------------

The inner energy is: U= E(el) + E(ZPE) + E(vib) + E(rot) + E(trans)
    E(el)   - is the total energy from the electronic structure calculation
              = E(kin-el) + E(nuc-el) + E(el-el) + E(nuc-nuc)
    E(ZPE)  - the the zero temperature vibrational energy from the frequency calculation
    E(vib)  - the the finite temperature correction to E(ZPE) due to population
              of excited vibrational states
    E(rot)  - is the rotational thermal energy
    E(trans)- is the translational thermal energy

Summary of contributions to the inner energy U:
Electronic energy                ...   -153.81555184 Eh
Zero point energy                ...      0.05522639 Eh      34.66 kcal/mol
Thermal vibrational correction   ...      0.00105720 Eh       0.66 kcal/mol
Thermal rotational correction    ...      0.00141627 Eh       0.89 kcal/mol
Thermal translational correction ...      0.00141627 Eh       0.89 kcal/mol
-----------------------------------------------------------------------
Total thermal energy                   -153.75643570 Eh

Summary of corrections to the electronic energy:
(perhaps to be used in another calculation)
Total thermal correction                  0.00388974 Eh       2.44 kcal/mol
Non-thermal (ZPE) correction              0.05522639 Eh      34.66 kcal/mol
-----------------------------------------------------------------------
Total correction                          0.05911613 Eh      37.10 kcal/mol

--------
ENTHALPY
--------

The enthalpy is H = U + kB*T
                kB is Boltzmann's constant
Total free energy                 ...   -153.75643570 Eh
Thermal Enthalpy correction       ...      0.00094421 Eh       0.59 kcal/mol
-----------------------------------------------------------------------
Total Enthalpy                    ...   -153.75549149 Eh

Note: Only C1 symmetry has been detected, increase convergence thresholds
      if your molecule has a higher symmetry. Symmetry factor of 1.0 is
      used for the rotational entropy correction.

Note: Rotational entropy computed according to Herzberg
Infrared and Raman Spectra, Chapter V,1, Van Nostrand Reinhold, 1945
Point Group:  C1, Symmetry Number:   1
Rotational constants in cm-1:     1.910995     0.339601     0.304541

Vibrational entropy computed according to the QRRHO of S. Grimme
Chem.Eur.J. 2012 18 9955

-------
ENTROPY
-------

The entropy contributions are T*S = T*(S(el)+S(vib)+S(rot)+S(trans))
     S(el)   - electronic entropy
     S(vib)  - vibrational entropy
     S(rot)  - rotational entropy
     S(trans)- translational entropy
The entropies will be listed as multiplied by the temperature to get
units of energy

Electronic entropy                ...      0.00000000 Eh      0.00 kcal/mol
Vibrational entropy               ...      0.00176768 Eh      1.11 kcal/mol
Rotational entropy                ...      0.01027621 Eh      6.45 kcal/mol
Translational entropy             ...      0.01771022 Eh     11.11 kcal/mol
-----------------------------------------------------------------------
Final entropy term                ...      0.02975410 Eh     18.67 kcal/mol

In case the symmetry of your molecule has not been determined correctly
or in case you have a reason to use a different symmetry number we print
out the resulting rotational entropy values for sn=1,12 :
 --------------------------------------------------------
|  sn= 1 | S(rot)=       0.01027621 Eh      6.45 kcal/mol|
|  sn= 2 | S(rot)=       0.00962176 Eh      6.04 kcal/mol|
|  sn= 3 | S(rot)=       0.00923892 Eh      5.80 kcal/mol|
|  sn= 4 | S(rot)=       0.00896730 Eh      5.63 kcal/mol|
|  sn= 5 | S(rot)=       0.00875661 Eh      5.49 kcal/mol|
|  sn= 6 | S(rot)=       0.00858447 Eh      5.39 kcal/mol|
|  sn= 7 | S(rot)=       0.00843892 Eh      5.30 kcal/mol|
|  sn= 8 | S(rot)=       0.00831284 Eh      5.22 kcal/mol|
|  sn= 9 | S(rot)=       0.00820164 Eh      5.15 kcal/mol|
|  sn=10 | S(rot)=       0.00810216 Eh      5.08 kcal/mol|
|  sn=11 | S(rot)=       0.00801217 Eh      5.03 kcal/mol|
|  sn=12 | S(rot)=       0.00793001 Eh      4.98 kcal/mol|
 --------------------------------------------------------

-------------------
GIBBS FREE ENERGY
-------------------

The Gibbs free energy is G = H - T*S

Total enthalpy                    ...   -153.75549149 Eh
Total entropy correction          ...     -0.02975410 Eh    -18.67 kcal/mol
-----------------------------------------------------------------------
Final Gibbs free energy         ...   -153.78524560 Eh

For completeness - the Gibbs free energy minus the electronic energy
G-E(el)                           ...      0.03030624 Eh     19.02 kcal/mol

                             ****ORCA TERMINATED NORMALLY****
TOTAL RUN TIME: 0 days 0 hours 1 minutes 8 seconds 417 msec
