                         Program Version 5.0.1 -  RELEASE  -
|  1> ! pal8 B3LYP 6-31G(d) OptTs Freq
|  2> * xyz 0 1
|  3> C       -1.466309    0.784167   -0.289984
|  4> C        -1.291057   -0.472056    0.261839
|  5> O        -0.511026   -1.358456   -0.252221
|  6> C         1.285570   -0.900284    0.182034
|  7> C         1.374702    0.412704   -0.301796
|  8> C         0.668678    1.425295    0.322236
|  9> H        -2.145897    1.492397    0.178794
| 10> H        -1.225400    0.953689   -1.332994
| 11> H        -1.676663   -0.646152    1.281812
| 12> H         1.766395   -1.711905   -0.353320
| 13> H         1.173540   -1.069495    1.248816
| 14> H         1.692496    0.557034   -1.332675
| 15> H         0.629026    2.424945   -0.101698
| 16> H         0.445204    1.368175    1.383056
| 17>
| 18> *
| 19>
| 20>                          ****END OF INPUT****
 Total Charge           Charge          ....    0
 Multiplicity           Mult            ....    1
 Number of Electrons    NEL             ....   46
FINAL SINGLE POINT ENERGY      -270.287132606809
FINAL SINGLE POINT ENERGY      -270.283364164657
FINAL SINGLE POINT ENERGY      -270.287124946983
FINAL SINGLE POINT ENERGY      -270.287130859308
FINAL SINGLE POINT ENERGY      -270.287142438633
FINAL SINGLE POINT ENERGY      -270.287150084201
FINAL SINGLE POINT ENERGY      -270.287129210355
FINAL SINGLE POINT ENERGY      -270.287131029637
FINAL SINGLE POINT ENERGY      -270.287131899681
FINAL SINGLE POINT ENERGY      -270.287129438694
FINAL SINGLE POINT ENERGY      -270.287128714456
FINAL SINGLE POINT ENERGY      -270.287123832328
FINAL SINGLE POINT ENERGY      -270.287134928339
                    ***********************HURRAY********************

CARTESIAN COORDINATES (ANGSTROEM)
---------------------------------
  C     -1.464657    0.784530   -0.290326
  C     -1.291941   -0.472408    0.262803
  O     -0.510690   -1.359778   -0.248159
  C      1.285752   -0.900638    0.181144
  C      1.374668    0.413094   -0.302531
  C      0.667510    1.425318    0.322732
  H     -2.145217    1.493481    0.176599
  H     -1.223070    0.952659   -1.333684
  H     -1.680343   -0.645069    1.282279
  H      1.766104   -1.712135   -0.355410
  H      1.176850   -1.069848    1.248513
  H      1.691081    0.557970   -1.334006
  H      0.627301    2.425611   -0.100310
  H      0.445911    1.367271    1.384255

 Multiplicity           Mult            ....    1
 Number of Electrons    NEL             ....   46
 Basis Dimension        Dim             ....  100

ORBITAL ENERGIES
----------------

  NO   OCC          E(Eh)            E(eV)
   0   2.0000     -19.126415      -520.4562
   1   2.0000     -10.220543      -278.1151
   2   2.0000     -10.212455      -277.8950
   3   2.0000     -10.201102      -277.5861
   4   2.0000     -10.176327      -276.9119
   5   2.0000     -10.174681      -276.8671
   6   2.0000      -0.997986       -27.1566
   7   2.0000      -0.793458       -21.5911
   8   2.0000      -0.728914       -19.8348
   9   2.0000      -0.670183       -18.2366
  10   2.0000      -0.564880       -15.3712
  11   2.0000      -0.551011       -14.9938
  12   2.0000      -0.482644       -13.1334
  13   2.0000      -0.456264       -12.4156
  14   2.0000      -0.438729       -11.9384
  15   2.0000      -0.427695       -11.6382
  16   2.0000      -0.391808       -10.6616
  17   2.0000      -0.382294       -10.4028
  18   2.0000      -0.366818        -9.9816
  19   2.0000      -0.361878        -9.8472
  20   2.0000      -0.268197        -7.2980
  21   2.0000      -0.248804        -6.7703
  22   2.0000      -0.218614        -5.9488
  23   0.0000      -0.023150        -0.6299
  24   0.0000       0.013868         0.3774
  25   0.0000       0.094816         2.5801
  26   0.0000       0.111825         3.0429
  27   0.0000       0.121350         3.3021

MULLIKEN ATOMIC CHARGES
-----------------------
   0 C :   -0.345107
   1 C :    0.193912
   2 O :   -0.445181
   3 C :   -0.202902
   4 C :   -0.048682
   5 C :   -0.319744
   6 H :    0.138466
   7 H :    0.160345
   8 H :    0.088694
   9 H :    0.168431
  10 H :    0.162722
  11 H :    0.129950
  12 H :    0.159334
  13 H :    0.159763
Sum of atomic charges:   -0.0000000

LOEWDIN ATOMIC CHARGES
----------------------
   0 C :   -0.280692
   1 C :   -0.028758
   2 O :   -0.238815
   3 C :   -0.112683
   4 C :   -0.189268
   5 C :   -0.194298
   6 H :    0.130932
   7 H :    0.139337
   8 H :    0.090573
   9 H :    0.143197
  10 H :    0.136859
  11 H :    0.129684
  12 H :    0.138209
  13 H :    0.135722

  Mayer bond orders larger than 0.100000
B(  0-C ,  1-C ) :   1.4890 B(  0-C ,  3-C ) :   0.1118 B(  0-C ,  5-C ) :   0.3447
B(  0-C ,  6-H ) :   0.9299 B(  0-C ,  7-H ) :   0.9332 B(  1-C ,  2-O ) :   1.4093
B(  1-C ,  8-H ) :   0.9148 B(  2-O ,  3-C ) :   0.4518 B(  3-C ,  4-C ) :   1.3810
B(  3-C ,  9-H ) :   0.9371 B(  3-C , 10-H ) :   0.9334 B(  4-C ,  5-C ) :   1.5269
B(  4-C , 11-H ) :   0.9363 B(  5-C , 12-H ) :   0.9346 B(  5-C , 13-H ) :   0.9348

FINAL SINGLE POINT ENERGY      -270.287134901978

DIPOLE MOMENT
-------------
                                X             Y             Z
Electronic contribution:     -0.38715      -2.73608      -0.67488
Nuclear contribution   :      0.66795       3.44059       0.98575
                        -----------------------------------------
Total Dipole Moment    :      0.28080       0.70451       0.31087
                        -----------------------------------------
Magnitude (a.u.)       :      0.81965
Magnitude (Debye)      :      2.08338

VIBRATIONAL FREQUENCIES
-----------------------

Scaling factor for frequencies =  1.000000000  (already applied!)

   0:         0.00 cm**-1
   1:         0.00 cm**-1
   2:         0.00 cm**-1
   3:         0.00 cm**-1
   4:         0.00 cm**-1
   5:         0.00 cm**-1
   6:      -484.30 cm**-1 ***imaginary mode***
   7:       169.34 cm**-1
   8:       269.73 cm**-1
   9:       311.60 cm**-1
  10:       379.41 cm**-1
  11:       426.87 cm**-1
  12:       464.40 cm**-1
  13:       529.83 cm**-1
  14:       737.71 cm**-1
  15:       808.28 cm**-1
  16:       875.68 cm**-1
  17:       898.16 cm**-1
  18:       962.59 cm**-1
  19:       995.49 cm**-1
  20:      1001.96 cm**-1
  21:      1011.69 cm**-1
  22:      1037.40 cm**-1
  23:      1057.21 cm**-1
  24:      1091.12 cm**-1
  25:      1266.33 cm**-1
  26:      1276.06 cm**-1
  27:      1301.43 cm**-1
  28:      1357.96 cm**-1
  29:      1449.59 cm**-1
  30:      1490.49 cm**-1
  31:      1550.40 cm**-1
  32:      1564.21 cm**-1
  33:      1637.07 cm**-1
  34:      2990.58 cm**-1
  35:      3165.55 cm**-1
  36:      3167.80 cm**-1
  37:      3172.13 cm**-1
  38:      3175.33 cm**-1
  39:      3250.05 cm**-1
  40:      3260.05 cm**-1
  41:      3262.88 cm**-1

IR SPECTRUM
-----------

 Mode   freq       eps      Int      T**2         TX        TY        TZ
       cm**-1   L/(mol*cm) km/mol    a.u.
----------------------------------------------------------------------------
  7:    169.34   0.000595    3.00  0.001096  ( 0.004912  0.017803 -0.027470)
  8:    269.73   0.003997   20.20  0.004625  (-0.061466 -0.028496 -0.005870)
  9:    311.60   0.000414    2.09  0.000414  (-0.013784 -0.014858  0.001885)
 10:    379.41   0.000221    1.12  0.000182  (-0.007462  0.011039  0.002069)
 11:    426.87   0.001292    6.53  0.000944  ( 0.012848  0.024536  0.013315)
 12:    464.40   0.000085    0.43  0.000057  ( 0.005627 -0.002132 -0.004557)
 13:    529.83   0.002540   12.84  0.001496  (-0.016843 -0.032759  0.011803)
 14:    737.71   0.005106   25.80  0.002160  ( 0.046399 -0.002571  0.000588)
 15:    808.28   0.000951    4.81  0.000367  (-0.015830 -0.010633  0.001894)
 16:    875.68   0.007232   36.55  0.002577  (-0.032988 -0.037379 -0.009585)
 17:    898.16   0.001147    5.80  0.000398  (-0.014123 -0.007445 -0.011983)
 18:    962.59   0.000078    0.40  0.000025  ( 0.003514  0.003397 -0.001229)
 19:    995.49   0.004465   22.57  0.001400  ( 0.033658  0.014908 -0.006687)
 20:   1001.96   0.001152    5.82  0.000359  ( 0.009938 -0.013209 -0.009244)
 21:   1011.69   0.001946    9.84  0.000600  (-0.023963 -0.004009 -0.003173)
 22:   1037.40   0.000319    1.61  0.000096  ( 0.004144  0.008589  0.002255)
 23:   1057.21   0.000317    1.60  0.000094  (-0.004718 -0.008306  0.001544)
 24:   1091.12   0.000361    1.82  0.000103  ( 0.004661  0.001872  0.008826)
 25:   1266.33   0.002097   10.60  0.000517  (-0.021961  0.004464 -0.003826)
 26:   1276.06   0.002596   13.12  0.000635  (-0.018195 -0.007655  0.015660)
 27:   1301.43   0.000029    0.15  0.000007  ( 0.001325 -0.001570 -0.001680)
 28:   1357.96   0.002545   12.86  0.000585  (-0.003173  0.020195  0.012922)
 29:   1449.59   0.001921    9.71  0.000414  (-0.014321  0.014417 -0.000811)
 30:   1490.49   0.001914    9.67  0.000401  (-0.009007  0.011836  0.013400)
 31:   1550.40   0.001639    8.28  0.000330  ( 0.011659  0.003195 -0.013558)
 32:   1564.21   0.001886    9.53  0.000376  ( 0.014370  0.012433  0.003909)
 33:   1637.07   0.007951   40.18  0.001516  (-0.013799  0.036306  0.002657)
 34:   2990.58   0.019543   98.76  0.002039  ( 0.027401  0.010777 -0.034239)
 35:   3165.55   0.001256    6.35  0.000124  (-0.010136  0.003852 -0.002506)
 36:   3167.80   0.003435   17.36  0.000338  (-0.011934  0.008329  0.011252)
 37:   3172.13   0.002595   13.11  0.000255  ( 0.000964 -0.013254  0.008871)
 38:   3175.33   0.000877    4.43  0.000086  ( 0.007756 -0.000939  0.005016)
 39:   3250.05   0.001380    6.98  0.000133  (-0.000539 -0.006089  0.009755)
 40:   3260.05   0.002093   10.58  0.000200  ( 0.004518 -0.004950 -0.012466)
 41:   3262.88   0.001505    7.61  0.000144  ( 0.004774 -0.003403 -0.010467)

--------------------------
THERMOCHEMISTRY AT 298.15K
--------------------------

Temperature         ... 298.15 K
Pressure            ... 1.00 atm
Total Mass          ... 84.12 AMU

Throughout the following assumptions are being made:
  (1) The electronic state is orbitally nondegenerate
  (2) There are no thermally accessible electronically excited states
  (3) Hindered rotations indicated by low frequency modes are not
      treated as such but are treated as vibrations and this may
      cause some error
  (4) All equations used are the standard statistical mechanics
      equations for an ideal gas
  (5) All vibrations are strictly harmonic

freq.     169.34  E(vib)   ...       0.38
freq.     269.73  E(vib)   ...       0.29
freq.     311.60  E(vib)   ...       0.25
freq.     379.41  E(vib)   ...       0.21
freq.     426.87  E(vib)   ...       0.18
freq.     464.40  E(vib)   ...       0.16
freq.     529.83  E(vib)   ...       0.13
freq.     737.71  E(vib)   ...       0.06
freq.     808.28  E(vib)   ...       0.05
freq.     875.68  E(vib)   ...       0.04
freq.     898.16  E(vib)   ...       0.03
freq.     962.59  E(vib)   ...       0.03
freq.     995.49  E(vib)   ...       0.02
freq.    1001.96  E(vib)   ...       0.02
freq.    1011.69  E(vib)   ...       0.02
freq.    1037.40  E(vib)   ...       0.02
freq.    1057.21  E(vib)   ...       0.02
freq.    1091.12  E(vib)   ...       0.02
freq.    1266.33  E(vib)   ...       0.01
freq.    1276.06  E(vib)   ...       0.01
freq.    1301.43  E(vib)   ...       0.01
freq.    1357.96  E(vib)   ...       0.01
freq.    1449.59  E(vib)   ...       0.00
freq.    1490.49  E(vib)   ...       0.00
freq.    1550.40  E(vib)   ...       0.00
freq.    1564.21  E(vib)   ...       0.00
freq.    1637.07  E(vib)   ...       0.00
freq.    2990.58  E(vib)   ...       0.00
freq.    3165.55  E(vib)   ...       0.00
freq.    3167.80  E(vib)   ...       0.00
freq.    3172.13  E(vib)   ...       0.00
freq.    3175.33  E(vib)   ...       0.00
freq.    3250.05  E(vib)   ...       0.00
freq.    3260.05  E(vib)   ...       0.00
freq.    3262.88  E(vib)   ...       0.00

------------
INNER ENERGY
------------

The inner energy is: U= E(el) + E(ZPE) + E(vib) + E(rot) + E(trans)
    E(el)   - is the total energy from the electronic structure calculation
              = E(kin-el) + E(nuc-el) + E(el-el) + E(nuc-nuc)
    E(ZPE)  - the the zero temperature vibrational energy from the frequency calculation
    E(vib)  - the the finite temperature correction to E(ZPE) due to population
              of excited vibrational states
    E(rot)  - is the rotational thermal energy
    E(trans)- is the translational thermal energy

Summary of contributions to the inner energy U:
Electronic energy                ...   -270.28713490 Eh
Zero point energy                ...      0.11702127 Eh      73.43 kcal/mol
Thermal vibrational correction   ...      0.00313842 Eh       1.97 kcal/mol
Thermal rotational correction    ...      0.00141627 Eh       0.89 kcal/mol
Thermal translational correction ...      0.00141627 Eh       0.89 kcal/mol
-----------------------------------------------------------------------
Total thermal energy                   -270.16414267 Eh

Summary of corrections to the electronic energy:
(perhaps to be used in another calculation)
Total thermal correction                  0.00597097 Eh       3.75 kcal/mol
Non-thermal (ZPE) correction              0.11702127 Eh      73.43 kcal/mol
-----------------------------------------------------------------------
Total correction                          0.12299223 Eh      77.18 kcal/mol

--------
ENTHALPY
--------

The enthalpy is H = U + kB*T
                kB is Boltzmann's constant
Total free energy                 ...   -270.16414267 Eh
Thermal Enthalpy correction       ...      0.00094421 Eh       0.59 kcal/mol
-----------------------------------------------------------------------
Total Enthalpy                    ...   -270.16319846 Eh

Note: Only C1 symmetry has been detected, increase convergence thresholds
      if your molecule has a higher symmetry. Symmetry factor of 1.0 is
      used for the rotational entropy correction.

Note: Rotational entropy computed according to Herzberg
Infrared and Raman Spectra, Chapter V,1, Van Nostrand Reinhold, 1945
Point Group:  C1, Symmetry Number:   1
Rotational constants in cm-1:     0.160294     0.129507     0.081639

Vibrational entropy computed according to the QRRHO of S. Grimme
Chem.Eur.J. 2012 18 9955

-------
ENTROPY
-------

The entropy contributions are T*S = T*(S(el)+S(vib)+S(rot)+S(trans))
     S(el)   - electronic entropy
     S(vib)  - vibrational entropy
     S(rot)  - rotational entropy
     S(trans)- translational entropy
The entropies will be listed as multiplied by the temperature to get
units of energy

Electronic entropy                ...      0.00000000 Eh      0.00 kcal/mol
Vibrational entropy               ...      0.00483542 Eh      3.03 kcal/mol
Rotational entropy                ...      0.01252285 Eh      7.86 kcal/mol
Translational entropy             ...      0.01862630 Eh     11.69 kcal/mol
-----------------------------------------------------------------------
Final entropy term                ...      0.03598457 Eh     22.58 kcal/mol

In case the symmetry of your molecule has not been determined correctly
or in case you have a reason to use a different symmetry number we print
out the resulting rotational entropy values for sn=1,12 :
 --------------------------------------------------------
|  sn= 1 | S(rot)=       0.01252285 Eh      7.86 kcal/mol|
|  sn= 2 | S(rot)=       0.01186839 Eh      7.45 kcal/mol|
|  sn= 3 | S(rot)=       0.01148556 Eh      7.21 kcal/mol|
|  sn= 4 | S(rot)=       0.01121394 Eh      7.04 kcal/mol|
|  sn= 5 | S(rot)=       0.01100325 Eh      6.90 kcal/mol|
|  sn= 6 | S(rot)=       0.01083110 Eh      6.80 kcal/mol|
|  sn= 7 | S(rot)=       0.01068556 Eh      6.71 kcal/mol|
|  sn= 8 | S(rot)=       0.01055948 Eh      6.63 kcal/mol|
|  sn= 9 | S(rot)=       0.01044827 Eh      6.56 kcal/mol|
|  sn=10 | S(rot)=       0.01034879 Eh      6.49 kcal/mol|
|  sn=11 | S(rot)=       0.01025880 Eh      6.44 kcal/mol|
|  sn=12 | S(rot)=       0.01017665 Eh      6.39 kcal/mol|
 --------------------------------------------------------

-------------------
GIBBS FREE ENERGY
-------------------

The Gibbs free energy is G = H - T*S

Total enthalpy                    ...   -270.16319846 Eh
Total entropy correction          ...     -0.03598457 Eh    -22.58 kcal/mol
-----------------------------------------------------------------------
Final Gibbs free energy         ...   -270.19918303 Eh

For completeness - the Gibbs free energy minus the electronic energy
G-E(el)                           ...      0.08795187 Eh     55.19 kcal/mol

                             ****ORCA TERMINATED NORMALLY****
TOTAL RUN TIME: 0 days 0 hours 1 minutes 31 seconds 215 msec
