                         Program Version 5.0.1 -  RELEASE  -
|  1>
|  2> ! pal8 opt freq b3lyp 6-31G(d)
|  3> %geom maxiter 500 end
|  4>
|  5> # claisen_ts_QRCR
|  6>
|  7> * xyz 0 1
|  8>  C  -1.36347090   0.83571390  -0.26951830
|  9>  C  -1.29328830  -0.49393210   0.26010870
| 10>  O  -0.61478850  -1.38440980  -0.26343350
| 11>  C   1.42538790  -0.86160260   0.20208550
| 12>  C   1.37954750   0.39685740  -0.30273620
| 13>  C   0.55513570   1.39981530   0.30324730
| 14>  H  -2.04348310   1.54741650   0.19735930
| 15>  H  -1.24390200   0.93702870  -1.35360820
| 16>  H  -1.68876130  -0.62574090   1.29191260
| 17>  H   1.85223250  -1.69297310  -0.34903860
| 18>  H   1.16403460  -1.06800630   1.24477020
| 19>  H   1.68315920   0.55496370  -1.33659200
| 20>  H   0.55729540   2.40656640  -0.10945550
| 21>  H   0.45766470   1.38044550   1.39457950
| 22> *
| 23>
| 24>                          ****END OF INPUT****
 Total Charge           Charge          ....    0
 Multiplicity           Mult            ....    1
 Number of Electrons    NEL             ....   46
FINAL SINGLE POINT ENERGY      -270.298149140941
FINAL SINGLE POINT ENERGY      -270.303344139500
FINAL SINGLE POINT ENERGY      -270.308918424314
FINAL SINGLE POINT ENERGY      -270.314603494422
FINAL SINGLE POINT ENERGY      -270.320117353994
FINAL SINGLE POINT ENERGY      -270.325619112902
FINAL SINGLE POINT ENERGY      -270.331268929391
FINAL SINGLE POINT ENERGY      -270.337574624707
FINAL SINGLE POINT ENERGY      -270.342604542352
FINAL SINGLE POINT ENERGY      -270.345509465753
FINAL SINGLE POINT ENERGY      -270.359270919681
FINAL SINGLE POINT ENERGY      -270.359283873730
FINAL SINGLE POINT ENERGY      -270.359297070647
FINAL SINGLE POINT ENERGY      -270.359305600170
FINAL SINGLE POINT ENERGY      -270.359310293436
FINAL SINGLE POINT ENERGY      -270.359310472229
FINAL SINGLE POINT ENERGY      -270.359311693594
FINAL SINGLE POINT ENERGY      -270.359312435819
FINAL SINGLE POINT ENERGY      -270.359313254974
                    ***********************HURRAY********************

CARTESIAN COORDINATES (ANGSTROEM)
---------------------------------
  C     -1.152639    0.914097   -0.249534
  C     -1.727702   -0.427572    0.158097
  O     -2.354593   -1.161859   -0.571948
  C      2.057246   -0.660537    0.341012
  C      1.281205    0.182143   -0.342469
  C      0.285757    1.133415    0.269194
  H     -1.808226    1.689707    0.177102
  H     -1.211833    0.998769   -1.340341
  H     -1.549790   -0.703037    1.224519
  H      2.758341   -1.324711   -0.157468
  H      2.024047   -0.716026    1.427793
  H      1.346192    0.200973   -1.431980
  H      0.574175    2.169660    0.042421
  H      0.304584    1.037121    1.363284

 Multiplicity           Mult            ....    1
 Number of Electrons    NEL             ....   46
 Basis Dimension        Dim             ....  100

ORBITAL ENERGIES
----------------

  NO   OCC          E(Eh)            E(eV)
   0   2.0000     -19.140581      -520.8417
   1   2.0000     -10.267658      -279.3972
   2   2.0000     -10.194414      -277.4041
   3   2.0000     -10.191083      -277.3135
   4   2.0000     -10.187476      -277.2153
   5   2.0000     -10.175308      -276.8842
   6   2.0000      -1.039601       -28.2890
   7   2.0000      -0.812579       -22.1114
   8   2.0000      -0.747956       -20.3529
   9   2.0000      -0.659113       -17.9354
  10   2.0000      -0.575009       -15.6468
  11   2.0000      -0.560639       -15.2558
  12   2.0000      -0.477217       -12.9857
  13   2.0000      -0.461552       -12.5595
  14   2.0000      -0.444813       -12.1040
  15   2.0000      -0.435261       -11.8441
  16   2.0000      -0.410142       -11.1605
  17   2.0000      -0.388445       -10.5701
  18   2.0000      -0.366651        -9.9771
  19   2.0000      -0.357421        -9.7259
  20   2.0000      -0.339688        -9.2434
  21   2.0000      -0.262331        -7.1384
  22   2.0000      -0.244630        -6.6567
  23   0.0000      -0.017924        -0.4877
  24   0.0000       0.016537         0.4500
  25   0.0000       0.103605         2.8192
  26   0.0000       0.109596         2.9823
  27   0.0000       0.129351         3.5198

MULLIKEN ATOMIC CHARGES
-----------------------
   0 C :   -0.337809
   1 C :    0.250347
   2 O :   -0.359170
   3 C :   -0.334853
   4 C :   -0.038153
   5 C :   -0.317387
   6 H :    0.163345
   7 H :    0.166520
   8 H :    0.094446
   9 H :    0.144401
  10 H :    0.136195
  11 H :    0.131347
  12 H :    0.156455
  13 H :    0.144317
Sum of atomic charges:   -0.0000000

LOEWDIN ATOMIC CHARGES
----------------------
   0 C :   -0.269764
   1 C :    0.062604
   2 O :   -0.184793
   3 C :   -0.270854
   4 C :   -0.129549
   5 C :   -0.229150
   6 H :    0.145103
   7 H :    0.139909
   8 H :    0.086696
   9 H :    0.132890
  10 H :    0.126763
  11 H :    0.128408
  12 H :    0.135023
  13 H :    0.126712

  Mayer bond orders larger than 0.100000
B(  0-C ,  1-C ) :   0.9506 B(  0-C ,  5-C ) :   0.9717 B(  0-C ,  6-H ) :   0.9176
B(  0-C ,  7-H ) :   0.9289 B(  1-C ,  2-O ) :   2.0127 B(  1-C ,  8-H ) :   0.8831
B(  3-C ,  4-C ) :   1.9850 B(  3-C ,  9-H ) :   0.9365 B(  3-C , 10-H ) :   0.9373
B(  4-C ,  5-C ) :   1.0281 B(  4-C , 11-H ) :   0.9305 B(  5-C , 12-H ) :   0.9277
B(  5-C , 13-H ) :   0.9350

FINAL SINGLE POINT ENERGY      -270.359313513839

DIPOLE MOMENT
-------------
                                X             Y             Z
Electronic contribution:     -4.04654      -2.45500      -1.29300
Nuclear contribution   :      4.60138       3.26195       1.72730
                        -----------------------------------------
Total Dipole Moment    :      0.55484       0.80695       0.43430
                        -----------------------------------------
Magnitude (a.u.)       :      1.07128
Magnitude (Debye)      :      2.72297

VIBRATIONAL FREQUENCIES
-----------------------

Scaling factor for frequencies =  1.000000000  (already applied!)

   0:         0.00 cm**-1
   1:         0.00 cm**-1
   2:         0.00 cm**-1
   3:         0.00 cm**-1
   4:         0.00 cm**-1
   5:         0.00 cm**-1
   6:        59.56 cm**-1
   7:        92.39 cm**-1
   8:       113.90 cm**-1
   9:       264.87 cm**-1
  10:       351.70 cm**-1
  11:       427.32 cm**-1
  12:       503.69 cm**-1
  13:       659.03 cm**-1
  14:       749.58 cm**-1
  15:       871.87 cm**-1
  16:       901.42 cm**-1
  17:       945.93 cm**-1
  18:      1006.17 cm**-1
  19:      1031.17 cm**-1
  20:      1035.96 cm**-1
  21:      1066.11 cm**-1
  22:      1168.56 cm**-1
  23:      1239.74 cm**-1
  24:      1246.58 cm**-1
  25:      1334.70 cm**-1
  26:      1359.04 cm**-1
  27:      1371.45 cm**-1
  28:      1438.65 cm**-1
  29:      1475.63 cm**-1
  30:      1486.85 cm**-1
  31:      1511.67 cm**-1
  32:      1731.36 cm**-1
  33:      1839.43 cm**-1
  34:      2883.27 cm**-1
  35:      3020.48 cm**-1
  36:      3033.11 cm**-1
  37:      3067.46 cm**-1
  38:      3105.24 cm**-1
  39:      3141.74 cm**-1
  40:      3155.90 cm**-1
  41:      3236.08 cm**-1

IR SPECTRUM
-----------

 Mode   freq       eps      Int      T**2         TX        TY        TZ
       cm**-1   L/(mol*cm) km/mol    a.u.
----------------------------------------------------------------------------
  6:     59.56   0.000783    3.96  0.004105  ( 0.054826 -0.031163 -0.011306)
  7:     92.39   0.000416    2.10  0.001405  (-0.027656  0.012068  0.022238)
  8:    113.90   0.000419    2.12  0.001147  (-0.024441  0.021884 -0.008390)
  9:    264.87   0.000348    1.76  0.000410  ( 0.006817  0.005819 -0.018150)
 10:    351.70   0.000669    3.38  0.000594  ( 0.014612  0.014483 -0.013066)
 11:    427.32   0.000359    1.81  0.000262  (-0.002942  0.015392 -0.004084)
 12:    503.69   0.000825    4.17  0.000511  (-0.006555 -0.017338  0.012951)
 13:    659.03   0.002669   13.49  0.001264  ( 0.023301  0.025527 -0.008312)
 14:    749.58   0.000420    2.12  0.000175  ( 0.001884  0.013057 -0.000789)
 15:    871.87   0.001689    8.53  0.000604  (-0.002633  0.017896 -0.016649)
 16:    901.42   0.000376    1.90  0.000130  (-0.008711 -0.006294  0.003808)
 17:    945.93   0.007211   36.44  0.002379  ( 0.034350  0.034478  0.003208)
 18:   1006.17   0.000886    4.48  0.000275  ( 0.012247  0.001651 -0.011051)
 19:   1031.17   0.001841    9.30  0.000557  (-0.015931 -0.017069  0.003450)
 20:   1035.96   0.000560    2.83  0.000169  (-0.012361 -0.003998 -0.000133)
 21:   1066.11   0.003028   15.30  0.000886  ( 0.020169  0.021870 -0.001147)
 22:   1168.56   0.001497    7.56  0.000400  ( 0.008814  0.015649 -0.008781)
 23:   1239.74   0.001205    6.09  0.000303  ( 0.014013  0.010336  0.000346)
 24:   1246.58   0.000082    0.42  0.000021  (-0.004059 -0.001249  0.001604)
 25:   1334.70   0.000327    1.65  0.000076  (-0.004976  0.004894 -0.005265)
 26:   1359.04   0.000037    0.19  0.000008  ( 0.000441 -0.002442  0.001526)
 27:   1371.45   0.000665    3.36  0.000151  (-0.009011  0.008015  0.002438)
 28:   1438.65   0.000827    4.18  0.000179  (-0.000100 -0.008633  0.010236)
 29:   1475.63   0.000850    4.30  0.000180  ( 0.004230 -0.009665  0.008273)
 30:   1486.85   0.001035    5.23  0.000217  (-0.007259  0.008912 -0.009228)
 31:   1511.67   0.001046    5.28  0.000216  ( 0.007196  0.005294  0.011665)
 32:   1731.36   0.001088    5.50  0.000196  ( 0.008833 -0.009586  0.005117)
 33:   1839.43   0.032281  163.13  0.005476  ( 0.043925  0.048566  0.034474)
 34:   2883.27   0.021413  108.21  0.002318  ( 0.001785 -0.017343  0.044874)
 35:   3020.48   0.003018   15.25  0.000312  ( 0.017318  0.000816  0.003355)
 36:   3033.11   0.006096   30.80  0.000627  ( 0.003534 -0.022465 -0.010488)
 37:   3067.46   0.002988   15.10  0.000304  (-0.001721 -0.010740  0.013625)
 38:   3105.24   0.003401   17.18  0.000342  ( 0.001440  0.000975 -0.018404)
 39:   3141.74   0.004583   23.16  0.000455  (-0.001147 -0.003040  0.021088)
 40:   3155.90   0.000874    4.42  0.000086  (-0.006940  0.004839 -0.003856)
 41:   3236.08   0.003530   17.84  0.000340  (-0.008794  0.006329  0.014935)

--------------------------
THERMOCHEMISTRY AT 298.15K
--------------------------

Temperature         ... 298.15 K
Pressure            ... 1.00 atm
Total Mass          ... 84.12 AMU

Throughout the following assumptions are being made:
  (1) The electronic state is orbitally nondegenerate
  (2) There are no thermally accessible electronically excited states
  (3) Hindered rotations indicated by low frequency modes are not
      treated as such but are treated as vibrations and this may
      cause some error
  (4) All equations used are the standard statistical mechanics
      equations for an ideal gas
  (5) All vibrations are strictly harmonic

freq.      59.56  E(vib)   ...       0.51
freq.      92.39  E(vib)   ...       0.47
freq.     113.90  E(vib)   ...       0.44
freq.     264.87  E(vib)   ...       0.29
freq.     351.70  E(vib)   ...       0.23
freq.     427.32  E(vib)   ...       0.18
freq.     503.69  E(vib)   ...       0.14
freq.     659.03  E(vib)   ...       0.08
freq.     749.58  E(vib)   ...       0.06
freq.     871.87  E(vib)   ...       0.04
freq.     901.42  E(vib)   ...       0.03
freq.     945.93  E(vib)   ...       0.03
freq.    1006.17  E(vib)   ...       0.02
freq.    1031.17  E(vib)   ...       0.02
freq.    1035.96  E(vib)   ...       0.02
freq.    1066.11  E(vib)   ...       0.02
freq.    1168.56  E(vib)   ...       0.01
freq.    1239.74  E(vib)   ...       0.01
freq.    1246.58  E(vib)   ...       0.01
freq.    1334.70  E(vib)   ...       0.01
freq.    1359.04  E(vib)   ...       0.01
freq.    1371.45  E(vib)   ...       0.01
freq.    1438.65  E(vib)   ...       0.00
freq.    1475.63  E(vib)   ...       0.00
freq.    1486.85  E(vib)   ...       0.00
freq.    1511.67  E(vib)   ...       0.00
freq.    1731.36  E(vib)   ...       0.00
freq.    1839.43  E(vib)   ...       0.00
freq.    2883.27  E(vib)   ...       0.00
freq.    3020.48  E(vib)   ...       0.00
freq.    3033.11  E(vib)   ...       0.00
freq.    3067.46  E(vib)   ...       0.00
freq.    3105.24  E(vib)   ...       0.00
freq.    3141.74  E(vib)   ...       0.00
freq.    3155.90  E(vib)   ...       0.00
freq.    3236.08  E(vib)   ...       0.00

------------
INNER ENERGY
------------

The inner energy is: U= E(el) + E(ZPE) + E(vib) + E(rot) + E(trans)
    E(el)   - is the total energy from the electronic structure calculation
              = E(kin-el) + E(nuc-el) + E(el-el) + E(nuc-nuc)
    E(ZPE)  - the the zero temperature vibrational energy from the frequency calculation
    E(vib)  - the the finite temperature correction to E(ZPE) due to population
              of excited vibrational states
    E(rot)  - is the rotational thermal energy
    E(trans)- is the translational thermal energy

Summary of contributions to the inner energy U:
Electronic energy                ...   -270.35931351 Eh
Zero point energy                ...      0.11829980 Eh      74.23 kcal/mol
Thermal vibrational correction   ...      0.00421483 Eh       2.64 kcal/mol
Thermal rotational correction    ...      0.00141627 Eh       0.89 kcal/mol
Thermal translational correction ...      0.00141627 Eh       0.89 kcal/mol
-----------------------------------------------------------------------
Total thermal energy                   -270.23396634 Eh

Summary of corrections to the electronic energy:
(perhaps to be used in another calculation)
Total thermal correction                  0.00704737 Eh       4.42 kcal/mol
Non-thermal (ZPE) correction              0.11829980 Eh      74.23 kcal/mol
-----------------------------------------------------------------------
Total correction                          0.12534718 Eh      78.66 kcal/mol

--------
ENTHALPY
--------

The enthalpy is H = U + kB*T
                kB is Boltzmann's constant
Total free energy                 ...   -270.23396634 Eh
Thermal Enthalpy correction       ...      0.00094421 Eh       0.59 kcal/mol
-----------------------------------------------------------------------
Total Enthalpy                    ...   -270.23302213 Eh

Note: Only C1 symmetry has been detected, increase convergence thresholds
      if your molecule has a higher symmetry. Symmetry factor of 1.0 is
      used for the rotational entropy correction.

Note: Rotational entropy computed according to Herzberg
Infrared and Raman Spectra, Chapter V,1, Van Nostrand Reinhold, 1945
Point Group:  C1, Symmetry Number:   1
Rotational constants in cm-1:     0.210653     0.068159     0.057046

Vibrational entropy computed according to the QRRHO of S. Grimme
Chem.Eur.J. 2012 18 9955

-------
ENTROPY
-------

The entropy contributions are T*S = T*(S(el)+S(vib)+S(rot)+S(trans))
     S(el)   - electronic entropy
     S(vib)  - vibrational entropy
     S(rot)  - rotational entropy
     S(trans)- translational entropy
The entropies will be listed as multiplied by the temperature to get
units of energy

Electronic entropy                ...      0.00000000 Eh      0.00 kcal/mol
Vibrational entropy               ...      0.00743159 Eh      4.66 kcal/mol
Rotational entropy                ...      0.01286613 Eh      8.07 kcal/mol
Translational entropy             ...      0.01862630 Eh     11.69 kcal/mol
-----------------------------------------------------------------------
Final entropy term                ...      0.03892402 Eh     24.43 kcal/mol

In case the symmetry of your molecule has not been determined correctly
or in case you have a reason to use a different symmetry number we print
out the resulting rotational entropy values for sn=1,12 :
 --------------------------------------------------------
|  sn= 1 | S(rot)=       0.01286613 Eh      8.07 kcal/mol|
|  sn= 2 | S(rot)=       0.01221167 Eh      7.66 kcal/mol|
|  sn= 3 | S(rot)=       0.01182884 Eh      7.42 kcal/mol|
|  sn= 4 | S(rot)=       0.01155721 Eh      7.25 kcal/mol|
|  sn= 5 | S(rot)=       0.01134653 Eh      7.12 kcal/mol|
|  sn= 6 | S(rot)=       0.01117438 Eh      7.01 kcal/mol|
|  sn= 7 | S(rot)=       0.01102884 Eh      6.92 kcal/mol|
|  sn= 8 | S(rot)=       0.01090276 Eh      6.84 kcal/mol|
|  sn= 9 | S(rot)=       0.01079155 Eh      6.77 kcal/mol|
|  sn=10 | S(rot)=       0.01069207 Eh      6.71 kcal/mol|
|  sn=11 | S(rot)=       0.01060208 Eh      6.65 kcal/mol|
|  sn=12 | S(rot)=       0.01051992 Eh      6.60 kcal/mol|
 --------------------------------------------------------

-------------------
GIBBS FREE ENERGY
-------------------

The Gibbs free energy is G = H - T*S

Total enthalpy                    ...   -270.23302213 Eh
Total entropy correction          ...     -0.03892402 Eh    -24.43 kcal/mol
-----------------------------------------------------------------------
Final Gibbs free energy         ...   -270.27194615 Eh

For completeness - the Gibbs free energy minus the electronic energy

                             ****ORCA TERMINATED NORMALLY****
TOTAL RUN TIME: 0 days 0 hours 5 minutes 42 seconds 433 msec
