                         Program Version 5.0.1 -  RELEASE  -
|  1> ! opt freq b3lyp 6-31G(d)
|  2> %maxcore 2000
|  3>
|  4> # claisen_ts_QRCF
|  5>
|  6> * xyz 0 1
|  7>  C  -1.56584310   0.73334610  -0.31113370
|  8>  C  -1.29059370  -0.45088390   0.26549730
|  9>  O  -0.40659150  -1.33514620  -0.23288450
| 10>  C   1.14611610  -0.93967340   0.16020250
| 11>  C   1.36978850   0.42933060  -0.30232580
| 12>  C   0.77988430   1.45082070   0.34221670
| 13>  H  -2.24695090   1.43954550   0.15583870
| 14>  H  -1.20223800   0.96828930  -1.31375980
| 15>  H  -1.67192470  -0.66439710   1.27264540
| 16>  H   1.67997550  -1.73129690  -0.36178140
| 17>  H   1.18966540  -1.07168970   1.25225580
| 18>  H   1.69900280   0.56097630  -1.33142000
| 19>  H   0.69730660   2.44465560  -0.09116450
| 20>  H   0.43415730   1.35409650   1.37393050
| 21> *
| 22>
| 23>
| 24>                          ****END OF INPUT****
 Total Charge           Charge          ....    0
 Multiplicity           Mult            ....    1
 Number of Electrons    NEL             ....   46
FINAL SINGLE POINT ENERGY      -270.297444843187
FINAL SINGLE POINT ENERGY      -270.306055187844
FINAL SINGLE POINT ENERGY      -270.314390815427
FINAL SINGLE POINT ENERGY      -270.319631166216
FINAL SINGLE POINT ENERGY      -270.322248491226
FINAL SINGLE POINT ENERGY      -270.323905668528
FINAL SINGLE POINT ENERGY      -270.325145489642
FINAL SINGLE POINT ENERGY      -270.326486766687
FINAL SINGLE POINT ENERGY      -270.327964560823
FINAL SINGLE POINT ENERGY      -270.329085475150
FINAL SINGLE POINT ENERGY      -270.329859435372
FINAL SINGLE POINT ENERGY      -270.330382279596
FINAL SINGLE POINT ENERGY      -270.330678129552
FINAL SINGLE POINT ENERGY      -270.330756170446
FINAL SINGLE POINT ENERGY      -270.330760787997
FINAL SINGLE POINT ENERGY      -270.330762909517
                    ***********************HURRAY********************

CARTESIAN COORDINATES (ANGSTROEM)
---------------------------------
  C     -2.643953   -0.038951   -0.608834
  C     -1.428194   -0.049234   -0.060861
  O     -0.402396   -0.790120   -0.573040
  C      0.853566   -0.670312    0.104170
  C      1.520250    0.655381   -0.141029
  C      1.997874    1.443778    0.822650
  H     -3.433834    0.552855   -0.160961
  H     -2.869977   -0.613890   -1.501235
  H     -1.187641    0.530018    0.830734
  H      1.458191   -1.488272   -0.303683
  H      0.727892   -0.848568    1.182447
  H      1.606745    0.947481   -1.187512
  H      2.496412    2.383664    0.600810
  H      1.916818    1.174144    1.874462

 Multiplicity           Mult            ....    1
 Number of Electrons    NEL             ....   46
 Basis Dimension        Dim             ....  100

ORBITAL ENERGIES
----------------

  NO   OCC          E(Eh)            E(eV)
   0   2.0000     -19.160970      -521.3965
   1   2.0000     -10.236175      -278.5405
   2   2.0000     -10.223231      -278.1883
   3   2.0000     -10.189030      -277.2576
   4   2.0000     -10.183179      -277.0984
   5   2.0000     -10.149980      -276.1950
   6   2.0000      -1.050217       -28.5778
   7   2.0000      -0.793547       -21.5935
   8   2.0000      -0.744448       -20.2575
   9   2.0000      -0.674780       -18.3617
  10   2.0000      -0.578498       -15.7417
  11   2.0000      -0.563201       -15.3255
  12   2.0000      -0.508456       -13.8358
  13   2.0000      -0.473713       -12.8904
  14   2.0000      -0.454435       -12.3658
  15   2.0000      -0.435167       -11.8415
  16   2.0000      -0.398475       -10.8431
  17   2.0000      -0.378981       -10.3126
  18   2.0000      -0.377929       -10.2840
  19   2.0000      -0.334139        -9.0924
  20   2.0000      -0.322186        -8.7671
  21   2.0000      -0.269331        -7.3289
  22   2.0000      -0.213140        -5.7998
  23   0.0000       0.005709         0.1554
  24   0.0000       0.045510         1.2384
  25   0.0000       0.110000         2.9933
  26   0.0000       0.117428         3.1954
  27   0.0000       0.134135         3.6500

MULLIKEN ATOMIC CHARGES
-----------------------
   0 C :   -0.394004
   1 C :    0.174367
   2 O :   -0.450541
   3 C :   -0.077348
   4 C :   -0.060709
   5 C :   -0.331004
   6 H :    0.137151
   7 H :    0.141762
   8 H :    0.126355
   9 H :    0.160561
  10 H :    0.138621
  11 H :    0.145105
  12 H :    0.149101
  13 H :    0.140582
Sum of atomic charges:   -0.0000000

LOEWDIN ATOMIC CHARGES
----------------------
   0 C :   -0.339534
   1 C :   -0.027920
   2 O :   -0.176353
   3 C :   -0.092663
   4 C :   -0.143134
   5 C :   -0.262042
   6 H :    0.135838
   7 H :    0.135849
   8 H :    0.118606
   9 H :    0.135302
  10 H :    0.116676
  11 H :    0.135850
  12 H :    0.134940
  13 H :    0.128585

  Mayer bond orders larger than 0.100000
B(  0-C ,  1-C ) :   1.9246 B(  0-C ,  6-H ) :   0.9385 B(  0-C ,  7-H ) :   0.9354
B(  1-C ,  2-O ) :   0.9912 B(  1-C ,  8-H ) :   0.9164 B(  2-O ,  3-C ) :   0.8997
B(  3-C ,  4-C ) :   1.0091 B(  3-C ,  9-H ) :   0.9312 B(  3-C , 10-H ) :   0.9255
B(  4-C ,  5-C ) :   1.9654 B(  4-C , 11-H ) :   0.9291 B(  5-C , 12-H ) :   0.9360
B(  5-C , 13-H ) :   0.9362

FINAL SINGLE POINT ENERGY      -270.330763410012

DIPOLE MOMENT
-------------
                                X             Y             Z
Electronic contribution:     -0.33980      -1.67329      -1.39488
Nuclear contribution   :      0.85399       1.91555       1.81871
                        -----------------------------------------
Total Dipole Moment    :      0.51418       0.24226       0.42383
                        -----------------------------------------
Magnitude (a.u.)       :      0.70902
Magnitude (Debye)      :      1.80217

VIBRATIONAL FREQUENCIES
-----------------------

Scaling factor for frequencies =  1.000000000  (already applied!)

   0:         0.00 cm**-1
   1:         0.00 cm**-1
   2:         0.00 cm**-1
   3:         0.00 cm**-1
   4:         0.00 cm**-1
   5:         0.00 cm**-1
   6:        38.89 cm**-1
   7:        87.04 cm**-1
   8:       115.93 cm**-1
   9:       286.41 cm**-1
  10:       343.47 cm**-1
  11:       418.21 cm**-1
  12:       526.51 cm**-1
  13:       668.27 cm**-1
  14:       702.88 cm**-1
  15:       831.22 cm**-1
  16:       888.35 cm**-1
  17:       934.59 cm**-1
  18:       956.62 cm**-1
  19:       979.16 cm**-1
  20:       997.15 cm**-1
  21:      1038.48 cm**-1
  22:      1107.25 cm**-1
  23:      1163.81 cm**-1
  24:      1211.15 cm**-1
  25:      1312.34 cm**-1
  26:      1328.14 cm**-1
  27:      1358.79 cm**-1
  28:      1401.61 cm**-1
  29:      1454.14 cm**-1
  30:      1478.67 cm**-1
  31:      1520.29 cm**-1
  32:      1728.84 cm**-1
  33:      1734.12 cm**-1
  34:      3024.66 cm**-1
  35:      3091.54 cm**-1
  36:      3153.62 cm**-1
  37:      3158.99 cm**-1
  38:      3168.28 cm**-1
  39:      3188.91 cm**-1
  40:      3237.10 cm**-1
  41:      3275.09 cm**-1

IR SPECTRUM
-----------

 Mode   freq       eps      Int      T**2         TX        TY        TZ
       cm**-1   L/(mol*cm) km/mol    a.u.
----------------------------------------------------------------------------
  6:     38.89   0.000120    0.61  0.000966  ( 0.018217  0.023616 -0.008725)
  7:     87.04   0.000173    0.87  0.000619  ( 0.018498  0.014509 -0.008163)
  8:    115.93   0.000575    2.91  0.001548  ( 0.010517  0.029266 -0.024105)
  9:    286.41   0.000672    3.39  0.000732  (-0.014615 -0.015914  0.016278)
 10:    343.47   0.000884    4.47  0.000803  ( 0.017394  0.022101 -0.003457)
 11:    418.21   0.000317    1.60  0.000237  (-0.014620 -0.004612  0.001250)
 12:    526.51   0.000039    0.20  0.000023  ( 0.003780 -0.000130  0.002975)
 13:    668.27   0.002179   11.01  0.001018  ( 0.022824 -0.021129 -0.007090)
 14:    702.88   0.000376    1.90  0.000167  ( 0.007044  0.007891 -0.007414)
 15:    831.22   0.010086   50.97  0.003787  ( 0.014916  0.047964 -0.035548)
 16:    888.35   0.000884    4.47  0.000311  ( 0.001972  0.006169  0.016388)
 17:    934.59   0.000741    3.74  0.000247  (-0.002209 -0.015567  0.000204)
 18:    956.62   0.007693   38.88  0.002510  ( 0.044603 -0.022699 -0.002222)
 19:    979.16   0.003760   19.00  0.001198  (-0.012253 -0.027853  0.016500)
 20:    997.15   0.000218    1.10  0.000068  ( 0.003538  0.007446 -0.000452)
 21:   1038.48   0.004559   23.04  0.001370  (-0.035006  0.011767 -0.002467)
 22:   1107.25   0.021095  106.61  0.005945  ( 0.070977  0.010035  0.028410)
 23:   1163.81   0.017180   86.82  0.004607  (-0.065969  0.009602 -0.012752)
 24:   1211.15   0.029159  147.36  0.007513  ( 0.086246 -0.007491  0.004301)
 25:   1312.34   0.010845   54.81  0.002579  ( 0.049235 -0.012272  0.002039)
 26:   1328.14   0.002727   13.78  0.000641  (-0.024354  0.006850  0.000810)
 27:   1358.79   0.003036   15.34  0.000697  ( 0.024174 -0.008542 -0.006317)
 28:   1401.61   0.003017   15.25  0.000672  ( 0.017237  0.017600  0.008052)
 29:   1454.14   0.002137   10.80  0.000459  (-0.020908  0.002805 -0.003692)
 30:   1478.67   0.002104   10.63  0.000444  ( 0.012310  0.010345  0.013617)
 31:   1520.29   0.000919    4.65  0.000189  (-0.007110  0.004147 -0.010999)
 32:   1728.84   0.008669   43.81  0.001565  (-0.038593  0.007511 -0.004351)
 33:   1734.12   0.022610  114.26  0.004069  (-0.061522  0.004656 -0.016193)
 34:   3024.66   0.009723   49.13  0.001003  ( 0.013382 -0.017946  0.022404)
 35:   3091.54   0.004527   22.88  0.000457  (-0.012404  0.012867  0.011727)
 36:   3153.62   0.002027   10.24  0.000201  (-0.004133 -0.002301 -0.013348)
 37:   3158.99   0.003463   17.50  0.000342  (-0.003145  0.009621  0.015480)
 38:   3168.28   0.001211    6.12  0.000119  (-0.003766 -0.003520  0.009627)
 39:   3188.91   0.000066    0.33  0.000006  (-0.002185  0.000913  0.000919)
 40:   3237.10   0.003254   16.44  0.000314  (-0.007054 -0.011847  0.011116)
 41:   3275.09   0.001729    8.74  0.000165  (-0.004750  0.007885  0.008946)

--------------------------
THERMOCHEMISTRY AT 298.15K
--------------------------

Temperature         ... 298.15 K
Pressure            ... 1.00 atm
Total Mass          ... 84.12 AMU

Throughout the following assumptions are being made:
  (1) The electronic state is orbitally nondegenerate
  (2) There are no thermally accessible electronically excited states
  (3) Hindered rotations indicated by low frequency modes are not
      treated as such but are treated as vibrations and this may
      cause some error
  (4) All equations used are the standard statistical mechanics
      equations for an ideal gas
  (5) All vibrations are strictly harmonic

freq.      38.89  E(vib)   ...       0.54
freq.      87.04  E(vib)   ...       0.48
freq.     115.93  E(vib)   ...       0.44
freq.     286.41  E(vib)   ...       0.27
freq.     343.47  E(vib)   ...       0.23
freq.     418.21  E(vib)   ...       0.18
freq.     526.51  E(vib)   ...       0.13
freq.     668.27  E(vib)   ...       0.08
freq.     702.88  E(vib)   ...       0.07
freq.     831.22  E(vib)   ...       0.04
freq.     888.35  E(vib)   ...       0.04
freq.     934.59  E(vib)   ...       0.03
freq.     956.62  E(vib)   ...       0.03
freq.     979.16  E(vib)   ...       0.03
freq.     997.15  E(vib)   ...       0.02
freq.    1038.48  E(vib)   ...       0.02
freq.    1107.25  E(vib)   ...       0.02
freq.    1163.81  E(vib)   ...       0.01
freq.    1211.15  E(vib)   ...       0.01
freq.    1312.34  E(vib)   ...       0.01
freq.    1328.14  E(vib)   ...       0.01
freq.    1358.79  E(vib)   ...       0.01
freq.    1401.61  E(vib)   ...       0.00
freq.    1454.14  E(vib)   ...       0.00
freq.    1478.67  E(vib)   ...       0.00
freq.    1520.29  E(vib)   ...       0.00
freq.    1728.84  E(vib)   ...       0.00
freq.    1734.12  E(vib)   ...       0.00
freq.    3024.66  E(vib)   ...       0.00
freq.    3091.54  E(vib)   ...       0.00
freq.    3153.62  E(vib)   ...       0.00
freq.    3158.99  E(vib)   ...       0.00
freq.    3168.28  E(vib)   ...       0.00
freq.    3188.91  E(vib)   ...       0.00
freq.    3237.10  E(vib)   ...       0.00
freq.    3275.09  E(vib)   ...       0.00

------------
INNER ENERGY
------------

The inner energy is: U= E(el) + E(ZPE) + E(vib) + E(rot) + E(trans)
    E(el)   - is the total energy from the electronic structure calculation
              = E(kin-el) + E(nuc-el) + E(el-el) + E(nuc-nuc)
    E(ZPE)  - the the zero temperature vibrational energy from the frequency calculation
    E(vib)  - the the finite temperature correction to E(ZPE) due to population
              of excited vibrational states
    E(rot)  - is the rotational thermal energy
    E(trans)- is the translational thermal energy

Summary of contributions to the inner energy U:
Electronic energy                ...   -270.33076341 Eh
Zero point energy                ...      0.11826082 Eh      74.21 kcal/mol
Thermal vibrational correction   ...      0.00430583 Eh       2.70 kcal/mol
Thermal rotational correction    ...      0.00141627 Eh       0.89 kcal/mol
Thermal translational correction ...      0.00141627 Eh       0.89 kcal/mol
-----------------------------------------------------------------------
Total thermal energy                   -270.20536422 Eh

Summary of corrections to the electronic energy:
(perhaps to be used in another calculation)
Total thermal correction                  0.00713837 Eh       4.48 kcal/mol
Non-thermal (ZPE) correction              0.11826082 Eh      74.21 kcal/mol
-----------------------------------------------------------------------
Total correction                          0.12539919 Eh      78.69 kcal/mol

--------
ENTHALPY
--------

The enthalpy is H = U + kB*T
                kB is Boltzmann's constant
Total free energy                 ...   -270.20536422 Eh
Thermal Enthalpy correction       ...      0.00094421 Eh       0.59 kcal/mol
-----------------------------------------------------------------------
Total Enthalpy                    ...   -270.20442001 Eh

Note: Only C1 symmetry has been detected, increase convergence thresholds
      if your molecule has a higher symmetry. Symmetry factor of 1.0 is
      used for the rotational entropy correction.

Note: Rotational entropy computed according to Herzberg
Infrared and Raman Spectra, Chapter V,1, Van Nostrand Reinhold, 1945
Point Group:  C1, Symmetry Number:   1
Rotational constants in cm-1:     0.295152     0.061951     0.055297

Vibrational entropy computed according to the QRRHO of S. Grimme
Chem.Eur.J. 2012 18 9955

-------
ENTROPY
-------

The entropy contributions are T*S = T*(S(el)+S(vib)+S(rot)+S(trans))
     S(el)   - electronic entropy
     S(vib)  - vibrational entropy
     S(rot)  - rotational entropy
     S(trans)- translational entropy
The entropies will be listed as multiplied by the temperature to get
units of energy

Electronic entropy                ...      0.00000000 Eh      0.00 kcal/mol
Vibrational entropy               ...      0.00763026 Eh      4.79 kcal/mol
Rotational entropy                ...      0.01276668 Eh      8.01 kcal/mol
Translational entropy             ...      0.01862630 Eh     11.69 kcal/mol
-----------------------------------------------------------------------
Final entropy term                ...      0.03902324 Eh     24.49 kcal/mol

In case the symmetry of your molecule has not been determined correctly
or in case you have a reason to use a different symmetry number we print
out the resulting rotational entropy values for sn=1,12 :
 --------------------------------------------------------
|  sn= 1 | S(rot)=       0.01276668 Eh      8.01 kcal/mol|
|  sn= 2 | S(rot)=       0.01211222 Eh      7.60 kcal/mol|
|  sn= 3 | S(rot)=       0.01172939 Eh      7.36 kcal/mol|
|  sn= 4 | S(rot)=       0.01145777 Eh      7.19 kcal/mol|
|  sn= 5 | S(rot)=       0.01124708 Eh      7.06 kcal/mol|
|  sn= 6 | S(rot)=       0.01107493 Eh      6.95 kcal/mol|
|  sn= 7 | S(rot)=       0.01092939 Eh      6.86 kcal/mol|
|  sn= 8 | S(rot)=       0.01080331 Eh      6.78 kcal/mol|
|  sn= 9 | S(rot)=       0.01069210 Eh      6.71 kcal/mol|
|  sn=10 | S(rot)=       0.01059262 Eh      6.65 kcal/mol|
|  sn=11 | S(rot)=       0.01050263 Eh      6.59 kcal/mol|
|  sn=12 | S(rot)=       0.01042048 Eh      6.54 kcal/mol|
 --------------------------------------------------------

-------------------
GIBBS FREE ENERGY
-------------------

The Gibbs free energy is G = H - T*S

Total enthalpy                    ...   -270.20442001 Eh
Total entropy correction          ...     -0.03902324 Eh    -24.49 kcal/mol
-----------------------------------------------------------------------
Final Gibbs free energy         ...   -270.24344325 Eh

For completeness - the Gibbs free energy minus the electronic energy

                             ****ORCA TERMINATED NORMALLY****
TOTAL RUN TIME: 0 days 0 hours 9 minutes 4 seconds 822 msec
